----- GAMESS execution script 'rungms' -----
This job is running on host g4noden2
under operating system Linux at mar sep 13 13:56:39 CEST 2016
Available scratch disk space (Kbyte units) at beginning of the job is
Filesystem           1K-blocks      Used Available Use% Mounted on
/dev/mapper/vgsys-scratch
                     941038652  50795280 890243372   6% /scratch
GAMESS temporary binary files will be written to /scratch/g4rosendo
GAMESS supplementary output files will be written to /scratch/g4rosendo
Copying input file exam35.inp to your run's scratch directory...
MPI kickoff will run GAMESS on 2 cores in 2 nodes.
The binary to be executed is /aplic/gamess/gamess-2013r1_intel11.1_mkl11.1_ompi-1.4.2/gamess.00.x
MPI will run 2 compute processes and 2 data servers,
    placing  of each process type onto each node.
The scratch disk space on each node is /scratch/g4rosendo, with free space
Filesystem           1K-blocks      Used Available Use% Mounted on
/dev/mapper/vgsys-scratch
                     941038652  50795304 890243348   6% /scratch
          ******************************************************
          *         GAMESS VERSION =  1 MAY 2013 (R1)          *
          *             FROM IOWA STATE UNIVERSITY             *
          * M.W.SCHMIDT, K.K.BALDRIDGE, J.A.BOATZ, S.T.ELBERT, *
          *   M.S.GORDON, J.H.JENSEN, S.KOSEKI, N.MATSUNAGA,   *
          *          K.A.NGUYEN, S.J.SU, T.L.WINDUS,           *
          *       TOGETHER WITH M.DUPUIS, J.A.MONTGOMERY       *
          *         J.COMPUT.CHEM.  14, 1347-1363(1993)        *
          **************** 64 BIT INTEL VERSION ****************

  SINCE 1993, STUDENTS AND POSTDOCS WORKING AT IOWA STATE UNIVERSITY
  AND ALSO IN THEIR VARIOUS JOBS AFTER LEAVING ISU HAVE MADE IMPORTANT
  CONTRIBUTIONS TO THE CODE:
     IVANA ADAMOVIC, CHRISTINE AIKENS, YURI ALEXEEV, POOJA ARORA,
     ANDREY ASADCHEV, ROB BELL, PRADIPTA BANDYOPADHYAY, JONATHAN BENTZ,
     BRETT BODE, GALINA CHABAN, WEI CHEN, CHEOL HO CHOI, PAUL DAY,
     ALBERT DEFUSCO, TIM DUDLEY, DMITRI FEDOROV, GRAHAM FLETCHER,
     MARK FREITAG, KURT GLAESEMANN, DAN KEMP, GRANT MERRILL,
     NORIYUKI MINEZAWA, JONATHAN MULLIN, TAKESHI NAGATA,
     SEAN NEDD, HEATHER NETZLOFF, BOSILJKA NJEGIC, RYAN OLSON, MIKE PAK,
     JIM SHOEMAKER, LYUDMILA SLIPCHENKO, SAROM SOK, JIE SONG,
     TETSUYA TAKETSUGU, SIMON WEBB, SOOHAENG YOO, FEDERICO ZAHARIEV

  ADDITIONAL CODE HAS BEEN PROVIDED BY COLLABORATORS IN OTHER GROUPS:
     IOWA STATE UNIVERSITY:
          JOE IVANIC, LAIMUTIS BYTAUTAS, KLAUS RUEDENBERG
     UNIVERSITY OF TOKYO: KIMIHIKO HIRAO, TAKAHITO NAKAJIMA,
          TAKAO TSUNEDA, MUNEAKI KAMIYA, SUSUMU YANAGISAWA,
          KIYOSHI YAGI, MAHITO CHIBA, SEIKEN TOKURA, NAOAKI KAWAKAMI
     UNIVERSITY OF AARHUS: FRANK JENSEN
     UNIVERSITY OF IOWA: VISVALDAS KAIRYS, HUI LI
     NATIONAL INST. OF STANDARDS AND TECHNOLOGY: WALT STEVENS, DAVID GARMER
     UNIVERSITY OF PISA: BENEDETTA MENNUCCI, JACOPO TOMASI
     UNIVERSITY OF MEMPHIS: HENRY KURTZ, PRAKASHAN KORAMBATH
     UNIVERSITY OF ALBERTA: TOBY ZENG, MARIUSZ KLOBUKOWSKI
     UNIVERSITY OF NEW ENGLAND: MARK SPACKMAN
     MIE UNIVERSITY: HIROAKI UMEDA
     MICHIGAN STATE UNIVERSITY:
          KAROL KOWALSKI, MARTA WLOCH, JEFFREY GOUR, JESSE LUTZ,
          WEI LI, PIOTR PIECUCH
     UNIVERSITY OF SILESIA: MONIKA MUSIAL, STANISLAW KUCHARSKI
     FACULTES UNIVERSITAIRES NOTRE-DAME DE LA PAIX:
          OLIVIER QUINET, BENOIT CHAMPAGNE
     UNIVERSITY OF CALIFORNIA - SANTA BARBARA: BERNARD KIRTMAN
     INSTITUTE FOR MOLECULAR SCIENCE:
          KAZUYA ISHIMURA, MICHIO KATOUDA, AND SHIGERU NAGASE
     UNIVERSITY OF NOTRE DAME: DAN CHIPMAN
     KYUSHU UNIVERSITY:
          HARUYUKI NAKANO,
          FENG LONG GU, JACEK KORCHOWIEC, MARCIN MAKOWSKI, AND YURIKO AOKI,
          HIROTOSHI MORI AND EISAKU MIYOSHI
     PENNSYLVANIA STATE UNIVERSITY:
          TZVETELIN IORDANOV, CHET SWALINA, JONATHAN SKONE,
          SHARON HAMMES-SCHIFFER
     WASEDA UNIVERSITY:
          MASATO KOBAYASHI, TOMOKO AKAMA, TSUGUKI TOUMA,
          TAKESHI YOSHIKAWA, YASUHIRO IKABATA, HIROMI NAKAI
     NANJING UNIVERSITY: SHUHUA LI
     UNIVERSITY OF NEBRASKA:
          PEIFENG SU, DEJUN SI, NANDUN THELLAMUREGE, YALI WANG, HUI LI
     UNIVERSITY OF ZURICH:
          ROBERTO PEVERATI, KIM BALDRIDGE
     N. COPERNICUS UNIVERSITY AND JACKSON STATE UNIVERSITY:
          MARIA BARYSZ

 EXECUTION OF GAMESS BEGUN Tue Sep 13 13:56:41 2016

            ECHO OF THE FIRST FEW INPUT CARDS -
 INPUT CARD>!   As atom...Test of relativistic energy correction,                           
 INPUT CARD>!   by the Douglas-Kroll transformation to 3rd order.                           
 INPUT CARD>!                                                                               
 INPUT CARD>!   the FINAL DK3 energy is -2259.0955118153                                    
 INPUT CARD>!   web page says           -2259.095511826                                     
 INPUT CARD>!      <r(4s)>=1.997, <r(4p)>=2.504 Bohr                                        
 INPUT CARD>!                                                                               
 INPUT CARD>!   convergence of the DK transformation is typical,                            
 INPUT CARD>!      0th order -2234.2372862734 (non-relativistic)                            
 INPUT CARD>!      1st order -2264.6131852344                                               
 INPUT CARD>!      2nd order -2258.9450216276                                               
 INPUT CARD>!      3rd order -2259.0955118173                                               
 INPUT CARD>!     inf. order -2259.0876044131                                               
 INPUT CARD>!   in that 1st order way undershoots, 2nd order comes                          
 INPUT CARD>!   back close, and 3rd order is not insubstantial.                             
 INPUT CARD>!                                                                               
 INPUT CARD>!   Compare with -2259.456841 which is the point                                
 INPUT CARD>!   nucleus Dirac-Coulomb numerical Hartree-Fock from                           
 INPUT CARD>!             L.Visscher, K.G.Dyall                                             
 INPUT CARD>!     At.Data Nucl.Data Tables 67, 207-224(1997),                               
 INPUT CARD>!   noting that the present run does not include any                            
 INPUT CARD>!   relativistic treatment of the 2e- potential.                                
 INPUT CARD>!                                                                               
 INPUT CARD>!   The Infinite Order Two Component (relwfn=iotc)                              
 INPUT CARD>!   shows the limit of the Douglas-Kroll method,                                
 INPUT CARD>!   and is preferred in practice.                                               
 INPUT CARD>!                                                                               
 INPUT CARD>!   The uncontracted 20s15p9d basis set below is from                           
 INPUT CARD>!       T.Tsuchiya, M.Abe, T.Nakajima, K.Hirao                                  
 INPUT CARD>!          J.Chem.Phys. 115, 4463-4472(2001)                                    
 INPUT CARD>!   using exponents downloaded from the web page of                             
 INPUT CARD>!   this group at the University of Tokyo.  A general                           
 INPUT CARD>!   contraction of this basis can easily be obtained,                           
 INPUT CARD>!   by manipulating the $VEC coefs produced by this run,                        
 INPUT CARD>!   see ~/gamess/tools/dk3.f.                                                   
 INPUT CARD>!                                                                               
 INPUT CARD>!   The semicolon divides two lines of input that happen                        
 INPUT CARD>!   to be given on a single physical line of the file.                          
 INPUT CARD>!                                                                               
 INPUT CARD> $contrl scftyp=rohf mult=4 relwfn=dk ispher=1 $end                             
 INPUT CARD> $system timlim=2 mwords=2 $end                                                 
 INPUT CARD> $relwfn norder=3 $end                                                          
 INPUT CARD> $guess  guess=huckel $end                                                      
 INPUT CARD> $radial nshell=2 idegsh(1)=1,3 memsh(1)=15, 16,17,18 $end                      
 INPUT CARD> $data                                                                          
 INPUT CARD>illustration of 3rd order Douglas-Kroll for As                                  
 INPUT CARD>Dnh 2                                                                           
 INPUT CARD>                                                                                
 INPUT CARD>Arsenic 33.0                                                                    
 INPUT CARD>   S 1 ; 1 7.2421890D+07 1.0                                                    
    2000000 WORDS OF MEMORY AVAILABLE


     RUN TITLE
     ---------
 illustration of 3rd order Douglas-Kroll for As                                  

 THE POINT GROUP OF THE MOLECULE IS DNH     
 THE ORDER OF THE PRINCIPAL AXIS IS     2

 ATOM      ATOMIC                      COORDINATES (BOHR)
           CHARGE         X                   Y                   Z
 ARSENIC    33.0     0.0000000000        0.0000000000        0.0000000000

          INTERNUCLEAR DISTANCES (ANGS.)
          ------------------------------

                1 ARSE  

   1 ARSE    0.0000000  

  * ... LESS THAN  3.000


     ATOMIC BASIS SET
     ----------------
 THE CONTRACTED PRIMITIVE FUNCTIONS HAVE BEEN UNNORMALIZED
 THE CONTRACTED BASIS FUNCTIONS ARE NOW NORMALIZED TO UNITY

  SHELL TYPE  PRIMITIVE        EXPONENT          CONTRACTION COEFFICIENT(S)

 ARSENIC   

      1   S       1      72421890.0000000    1.000000000000

      2   S       2       7704075.0000000    1.000000000000

      3   S       3       1336573.0000000    1.000000000000

      4   S       4        303943.5000000    1.000000000000

      5   S       5         83289.2500000    1.000000000000

      6   S       6         25994.4500000    1.000000000000

      7   S       7          8979.5770000    1.000000000000

      8   S       8          3366.7950000    1.000000000000

      9   S       9          1346.4700000    1.000000000000

     10   S      10           567.7458000    1.000000000000

     11   S      11           249.2308000    1.000000000000

     12   S      12           111.9952000    1.000000000000

     13   S      13            46.3281400    1.000000000000

     14   S      14            22.6112200    1.000000000000

     15   S      15            10.9101100    1.000000000000

     16   S      16             4.5498340    1.000000000000

     17   S      17             2.1494630    1.000000000000

     18   S      18             1.0337510    1.000000000000

     19   S      19             0.3089246    1.000000000000

     20   S      20             0.1120671    1.000000000000

     21   P      21         49515.5800000    1.000000000000

     22   P      22          8463.7830000    1.000000000000

     23   P      23          2290.8560000    1.000000000000

     24   P      24           779.6597000    1.000000000000

     25   P      25           305.4569000    1.000000000000

     26   P      26           130.9799000    1.000000000000

     27   P      27            59.6989600    1.000000000000

     28   P      28            28.4087900    1.000000000000

     29   P      29            13.8830000    1.000000000000

     30   P      30             6.6102210    1.000000000000

     31   P      31             3.0821260    1.000000000000

     32   P      32             1.3919830    1.000000000000

     33   P      33             0.4825470    1.000000000000

     34   P      34             0.1922826    1.000000000000

     35   P      35             0.0728497    1.000000000000

     36   D      36           718.9648000    1.000000000000

     37   D      37           207.9840000    1.000000000000

     38   D      38            79.5908500    1.000000000000

     39   D      39            34.5141100    1.000000000000

     40   D      40            15.7305400    1.000000000000

     41   D      41             7.2805600    1.000000000000

     42   D      42             3.3000700    1.000000000000

     43   D      43             1.4173160    1.000000000000

     44   D      44             0.5447273    1.000000000000

 TOTAL NUMBER OF BASIS SET SHELLS             =   44
 NUMBER OF CARTESIAN GAUSSIAN BASIS FUNCTIONS =  119
 NOTE: THIS RUN WILL RESTRICT THE MO VARIATION SPACE TO SPHERICAL HARMONICS.
 THE NUMBER OF ORBITALS KEPT IN THE VARIATIONAL SPACE WILL BE PRINTED LATER.
 NUMBER OF ELECTRONS                          =   33
 CHARGE OF MOLECULE                           =    0
 SPIN MULTIPLICITY                            =    4
 NUMBER OF OCCUPIED ORBITALS (ALPHA)          =   18
 NUMBER OF OCCUPIED ORBITALS (BETA )          =   15
 TOTAL NUMBER OF ATOMS                        =    1
 THE NUCLEAR REPULSION ENERGY IS        0.0000000000

     ---------------------------------
     RELATIVISTIC WAVEFUNCTION OPTIONS
     ---------------------------------
     METHOD=DK       NORDER= 3       NESOC=  0      MODEQR=      3
     NRATOM=  0      QMTTOL= 1.000E-06      QRTOL= 1.000E-02
     CLIGHT=137.03598950

 INTERNAL BASIS SET UNCONTRACTION FOR RESC/DK/IOTC:
    44 SHELLS AND    119 AOS ARE CONSTRUCTED, COMPARED TO
    44 SHELLS AND    119 AOS IN THE CONTRACTED BASIS SET


 THIS MOLECULE IS RECOGNIZED AS BEING LINEAR,
 ORBITAL LZ DEGENERACY TOLERANCE ETOLLZ= 1.00E-06

     $CONTRL OPTIONS
     ---------------
 SCFTYP=ROHF         RUNTYP=ENERGY       EXETYP=RUN     
 MPLEVL=       0     CITYP =NONE         CCTYP =NONE         VBTYP =NONE    
 DFTTYP=NONE         TDDFT =NONE    
 MULT  =       4     ICHARG=       0     NZVAR =       0     COORD =UNIQUE  
 PP    =NONE         RELWFN=DK           LOCAL =NONE         NUMGRD=       F
 ISPHER=       1     NOSYM =       0     MAXIT =      30     UNITS =ANGS    
 PLTORB=       F     MOLPLT=       F     AIMPAC=       F     FRIEND=        
 NPRINT=       7     IREST =       0     GEOM  =INPUT   
 NORMF =       0     NORMP =       0     ITOL  =      20     ICUT  =       9
 INTTYP=BEST         GRDTYP=BEST         QMTTOL= 1.0E-06

     $SYSTEM OPTIONS
     ---------------
  REPLICATED MEMORY=     2000000 WORDS (ON EVERY NODE).
 DISTRIBUTED MEMDDI=           0 MILLION WORDS IN AGGREGATE,
 MEMDDI DISTRIBUTED OVER   1 PROCESSORS IS           0 WORDS/PROCESSOR.
 TOTAL MEMORY REQUESTED ON EACH PROCESSOR=     2000000 WORDS.
 TIMLIM=           2.00 MINUTES, OR       0.0 DAYS.
 PARALL= F  BALTYP=  DLB     KDIAG=    0  COREFL= F
 MXSEQ2=     300 MXSEQ3=     150

          ----------------
          PROPERTIES INPUT
          ----------------

     MOMENTS            FIELD           POTENTIAL          DENSITY
 IEMOM =       1   IEFLD =       0   IEPOT =       0   IEDEN =       0
 WHERE =COMASS     WHERE =NUCLEI     WHERE =NUCLEI     WHERE =NUCLEI  
 OUTPUT=BOTH       OUTPUT=BOTH       OUTPUT=BOTH       OUTPUT=BOTH    
 IEMINT=       0   IEFINT=       0                     IEDINT=       0
                                                       MORB  =       0
          EXTRAPOLATION IN EFFECT
          SOSCF IN EFFECT
 ORBITAL PRINTING OPTION: NPREO=     1   119     2     1

     -------------------------------
     INTEGRAL TRANSFORMATION OPTIONS
     -------------------------------
     NWORD  =            0
     CUTOFF = 1.0E-09     MPTRAN =       0
     DIRTRF =       F     AOINTS =DUP     

          ----------------------
          INTEGRAL INPUT OPTIONS
          ----------------------
 NOPK  =       1 NORDER=       0 SCHWRZ=       F

     ------------------------------------------
     THE POINT GROUP IS DNH, NAXIS= 2, ORDER= 8
     ------------------------------------------

 -- VARIATIONAL SPACE WILL BE RESTRICTED TO PURE SPHERICAL HARMONICS ONLY --
 AFTER EXCLUDING CONTAMINANT COMBINATIONS FROM THE CARTESIAN GAUSSIAN BASIS
 SET, THE NUMBER OF SPHERICAL HARMONICS KEPT IN THE VARIATION SPACE IS  110

     DIMENSIONS OF THE SYMMETRY SUBSPACES ARE
 AG  =   38     AU  =    0     B3U =   15     B3G =    9     B1G =    9
 B1U =   15     B2U =   15     B2G =    9

 ..... DONE SETTING UP THE RUN .....
 STEP CPU TIME =     0.01 TOTAL CPU TIME =        0.0 (    0.0 MIN)
 TOTAL WALL CLOCK TIME=        0.1 SECONDS, CPU UTILIZATION IS  16.67%

          ********************
          1 ELECTRON INTEGRALS
          ********************
 TIME TO DO ORDINARY INTEGRALS=      0.01

 ------------------------------------------------------------------
 3RD ORDER DOUGLAS-KROLL-HESS RELATIVISTIC ONE-ELECTRON HAMILTONIAN
            CODED BY TAKAHITO NAKAJIMA AND DMITRI FEDOROV
 ------------------------------------------------------------------


 HONDO STYLE RESOLUTION OF THE IDENTITY IS USED.

 SPHERICAL CONTAMINANTS ELIMINATED:    9; KEPT   110 ORBITALS
 TIME TO DO  RELATIVISTIC INTS=      0.30
 ...... END OF ONE-ELECTRON INTEGRALS ......
 STEP CPU TIME =     0.31 TOTAL CPU TIME =        0.3 (    0.0 MIN)
 TOTAL WALL CLOCK TIME=        0.4 SECONDS, CPU UTILIZATION IS  84.21%

          -------------
          GUESS OPTIONS
          -------------
          GUESS =HUCKEL            NORB  =       0          NORDER=       0
          MIX   =       F          PRTMO =       F          PUNMO =       F
          TOLZ  = 1.0E-08          TOLE  = 1.0E-05
          SYMDEN=       F          PURIFY=       F

 INITIAL GUESS ORBITALS GENERATED BY HUCKEL   ROUTINE.
 HUCKEL GUESS REQUIRES    104981 WORDS.

 STATISTICS FOR GENERATION OF SYMMETRY ORBITAL -Q- MATRIX
 NUMBER OF CARTESIAN ATOMIC ORBITALS=        119
 NUMBER OF SPHERICAL CONTAMINANTS DROPPED=     9
 NUMBER OF LINEARLY DEPENDENT MOS DROPPED=     0
 TOTAL NUMBER OF MOS IN VARIATION SPACE=     110

 SYMMETRIES FOR INITIAL GUESS ORBITALS FOLLOW.  ALPHA SET(S).
    18 ORBITALS ARE OCCUPIED (   14 CORE ORBITALS).
    15=AG      16=B3U     17=B2U     18=B1U     19=AG      20=AG      21=AG  
    22=AG      23=AG      24=AG      25=AG      26=AG      27=AG      28=AG  

 SYMMETRIES FOR INITIAL GUESS ORBITALS FOLLOW.   BETA SET(S).
    15 ORBITALS ARE OCCUPIED (   14 CORE ORBITALS).
    15=AG      16=B3U     17=B2U     18=B1U     19=AG      20=AG      21=AG  
    22=AG      23=AG      24=AG      25=AG  
 ...... END OF INITIAL ORBITAL SELECTION ......
 STEP CPU TIME =     0.02 TOTAL CPU TIME =        0.3 (    0.0 MIN)
 TOTAL WALL CLOCK TIME=        0.4 SECONDS, CPU UTILIZATION IS  85.00%

                    ----------------------
                    AO INTEGRAL TECHNOLOGY
                    ----------------------
     S,P,L SHELL ROTATED AXIS INTEGRALS, REPROGRAMMED BY
        KAZUYA ISHIMURA (IMS) AND JOSE SIERRA (SYNSTAR).
     S,P,D,L SHELL ROTATED AXIS INTEGRALS PROGRAMMED BY
        KAZUYA ISHIMURA (INSTITUTE FOR MOLECULAR SCIENCE).
     S,P,D,F,G SHELL TO TOTAL QUARTET ANGULAR MOMENTUM SUM 5,
        ERIC PROGRAM BY GRAHAM FLETCHER (ELORET AND NASA ADVANCED
        SUPERCOMPUTING DIVISION, AMES RESEARCH CENTER).
     S,P,D,F,G,L SHELL GENERAL RYS QUADRATURE PROGRAMMED BY
        MICHEL DUPUIS (PACIFIC NORTHWEST NATIONAL LABORATORY).

          --------------------
          2 ELECTRON INTEGRALS
          --------------------

 THE -PK- OPTION IS OFF, THE INTEGRALS ARE NOT IN SUPERMATRIX FORM.
 STORING   15000 INTEGRALS/RECORD ON DISK, USING 12 BYTES/INTEGRAL.
 TWO ELECTRON INTEGRAL EVALUATION REQUIRES   91386 WORDS OF MEMORY.
 II,JST,KST,LST =  1  1  1  1 NREC =         1 INTLOC =    1
 II,JST,KST,LST =  2  1  1  1 NREC =         1 INTLOC =    2
 II,JST,KST,LST =  3  1  1  1 NREC =         1 INTLOC =    7
 II,JST,KST,LST =  4  1  1  1 NREC =         1 INTLOC =   22
 II,JST,KST,LST =  5  1  1  1 NREC =         1 INTLOC =   56
 II,JST,KST,LST =  6  1  1  1 NREC =         1 INTLOC =  121
 II,JST,KST,LST =  7  1  1  1 NREC =         1 INTLOC =  232
 II,JST,KST,LST =  8  1  1  1 NREC =         1 INTLOC =  407
 II,JST,KST,LST =  9  1  1  1 NREC =         1 INTLOC =  667
 II,JST,KST,LST = 10  1  1  1 NREC =         1 INTLOC = 1036
 II,JST,KST,LST = 11  1  1  1 NREC =         1 INTLOC = 1541
 II,JST,KST,LST = 12  1  1  1 NREC =         1 INTLOC = 2212
 II,JST,KST,LST = 13  1  1  1 NREC =         1 INTLOC = 3082
 II,JST,KST,LST = 14  1  1  1 NREC =         1 INTLOC = 4187
 II,JST,KST,LST = 15  1  1  1 NREC =         1 INTLOC = 5566
 II,JST,KST,LST = 16  1  1  1 NREC =         1 INTLOC = 7261
 II,JST,KST,LST = 17  1  1  1 NREC =         1 INTLOC = 9317
 II,JST,KST,LST = 18  1  1  1 NREC =         1 INTLOC =11782
 II,JST,KST,LST = 19  1  1  1 NREC =         1 INTLOC =14707
 II,JST,KST,LST = 20  1  1  1 NREC =         2 INTLOC = 3146
 II,JST,KST,LST = 21  1  1  1 NREC =         2 INTLOC = 7156
 II,JST,KST,LST = 22  1  1  1 NREC =         2 INTLOC = 8425
 II,JST,KST,LST = 23  1  1  1 NREC =         2 INTLOC =11581
 II,JST,KST,LST = 24  1  1  1 NREC =         3 INTLOC = 1732
 II,JST,KST,LST = 25  1  1  1 NREC =         3 INTLOC = 9037
 II,JST,KST,LST = 26  1  1  1 NREC =         4 INTLOC = 3703
 II,JST,KST,LST = 27  1  1  1 NREC =         5 INTLOC =  994
 II,JST,KST,LST = 28  1  1  1 NREC =         6 INTLOC = 1168
 II,JST,KST,LST = 29  1  1  1 NREC =         7 INTLOC = 4567
 II,JST,KST,LST = 30  1  1  1 NREC =         8 INTLOC =11602
 II,JST,KST,LST = 31  1  1  1 NREC =        10 INTLOC = 7714
 II,JST,KST,LST = 32  1  1  1 NREC =        12 INTLOC = 8395
 II,JST,KST,LST = 33  1  1  1 NREC =        14 INTLOC =14128
 II,JST,KST,LST = 34  1  1  1 NREC =        17 INTLOC = 9880
 II,JST,KST,LST = 35  1  1  1 NREC =        20 INTLOC =10939
 II,JST,KST,LST = 36  1  1  1 NREC =        24 INTLOC = 2179
 II,JST,KST,LST = 37  1  1  1 NREC =        32 INTLOC = 9262
 II,JST,KST,LST = 38  1  1  1 NREC =        43 INTLOC = 9877
 II,JST,KST,LST = 39  1  1  1 NREC =        57 INTLOC = 8059
 II,JST,KST,LST = 40  1  1  1 NREC =        74 INTLOC = 8659
 II,JST,KST,LST = 41  1  1  1 NREC =        95 INTLOC = 1528
 II,JST,KST,LST = 42  1  1  1 NREC =       119 INTLOC = 6919
 II,JST,KST,LST = 43  1  1  1 NREC =       147 INTLOC =14212
 II,JST,KST,LST = 44  1  1  1 NREC =       180 INTLOC =10897
 TOTAL NUMBER OF NONZERO TWO-ELECTRON INTEGRALS =             3252726
        217 INTEGRAL RECORDS WERE STORED ON DISK FILE  8.
  ...... END OF TWO-ELECTRON INTEGRALS .....
 STEP CPU TIME =     0.90 TOTAL CPU TIME =        1.2 (    0.0 MIN)
 TOTAL WALL CLOCK TIME=        1.3 SECONDS, CPU UTILIZATION IS  93.94%

          ---------------------------
                 ROHF SCF CALCULATION
          ---------------------------

     NUCLEAR ENERGY =         0.0000000000
     MAXIT = 30     NPUNCH=  2     MULT=  4
     EXTRAP=T  DAMP=F  SHIFT=F  RSTRCT=F  DIIS=F  SOSCF=T
     DENSITY MATRIX CONV=  1.00E-05
     ROHF CANONICALIZATION PARAMETERS
             C-C     O-O     V-V
     ALPHA -0.5000  0.5000  1.5000
     BETA   1.5000  0.5000 -0.5000
     SOSCF WILL OPTIMIZE    1701 ORBITAL ROTATION ANGLES. SOGTOL= 2.500E-01
     MEMORY REQUIRED FOR UHF/ROHF ITERS=    169119 WORDS.

 ITER EX      TOTAL ENERGY        E CHANGE  DENSITY CHANGE    ORB. GRAD 
   1  0    -2242.0536459595 -2242.0536459595   0.167736761   0.000000000
   2  1    -2259.0851667506   -17.0315207911   0.134440012   0.287866546
          ---------------START SECOND ORDER SCF---------------
   3  2    -2259.0941846530    -0.0090179024   0.024930631   0.023167687
   4  3    -2259.0948585475    -0.0006738946   0.006276112   0.015497283
   5  4    -2259.0955069493    -0.0006484018   0.007184302   0.000942258
   6  5    -2259.0955110538    -0.0000041045   0.001950745   0.000376856
   7  6    -2259.0955118259    -0.0000007721   0.000027645   0.000011943
   8  7    -2259.0955118263    -0.0000000004   0.000001284   0.000001620
   9  8    -2259.0955118263     0.0000000000   0.000000238   0.000000041

          -----------------
          DENSITY CONVERGED
          -----------------
     TIME TO FORM FOCK OPERATORS=       0.8 SECONDS (       0.1 SEC/ITER)
     TIME TO SOLVE SCF EQUATIONS=       0.0 SECONDS (       0.0 SEC/ITER)

 FINAL ROHF ENERGY IS    -2259.0955118263 AFTER   9 ITERATIONS

          --------------------
          SPIN SZ   =    1.500
          S-SQUARED =    3.750
          --------------------

 LZ VALUE ANALYSIS FOR THE MOS
 ----------------------------------------
 MO     1 (    1) HAS LZ(WEIGHT)= 0.00(100.0%) 
 MO     2 (    2) HAS LZ(WEIGHT)= 0.00(100.0%) 
 MO     3 (    3) HAS LZ(WEIGHT)=-1.00( 50.0%)  1.00( 50.0%) 
 MO     4 (    3) HAS LZ(WEIGHT)=-1.00( 50.0%)  1.00( 50.0%) 
 MO     5 (    3) HAS LZ(WEIGHT)= 0.00(100.0%) 
 MO     6 (    4) HAS LZ(WEIGHT)= 0.00(100.0%) 
 MO     7 (    5) HAS LZ(WEIGHT)=-1.00( 50.0%)  1.00( 50.0%) 
 MO     8 (    5) HAS LZ(WEIGHT)=-1.00( 50.0%)  1.00( 50.0%) 
 MO     9 (    5) HAS LZ(WEIGHT)= 0.00(100.0%) 
 MO    10 (    6) HAS LZ(WEIGHT)= 0.00( 98.7%) 
 MO    11 (    6) HAS LZ(WEIGHT)=-1.00( 50.0%)  1.00( 50.0%) 
 MO    12 (    6) HAS LZ(WEIGHT)=-1.00( 50.0%)  1.00( 50.0%) 
 MO    13 (    6) HAS LZ(WEIGHT)=-2.00( 50.0%)  2.00( 50.0%) 
 MO    14 (    6) HAS LZ(WEIGHT)=-2.00( 49.4%)  0.00(  1.3%)  2.00( 49.4%) 
 MO    15 (    7) HAS LZ(WEIGHT)= 0.00(100.0%) 
 MO    16 (    8) HAS LZ(WEIGHT)=-1.00( 50.0%)  1.00( 50.0%) 
 MO    17 (    8) HAS LZ(WEIGHT)= 0.00(100.0%) 
 MO    18 (    8) HAS LZ(WEIGHT)=-1.00( 50.0%)  1.00( 50.0%) 
 MO    19 (    9) HAS LZ(WEIGHT)= 0.00(100.0%) 
 MO    20 (    9) HAS LZ(WEIGHT)=-1.00( 50.0%)  1.00( 50.0%) 
 MO    21 (    9) HAS LZ(WEIGHT)=-1.00( 50.0%)  1.00( 50.0%) 
 MO    22 (   10) HAS LZ(WEIGHT)= 0.00(100.0%) 
 MO    23 (   11) HAS LZ(WEIGHT)=-2.00(  7.3%)  0.00( 85.4%)  2.00(  7.3%) 
 MO    24 (   11) HAS LZ(WEIGHT)=-2.00( 42.7%)  0.00( 14.6%)  2.00( 42.7%) 
 MO    25 (   11) HAS LZ(WEIGHT)=-1.00( 50.0%)  1.00( 50.0%) 
 MO    26 (   11) HAS LZ(WEIGHT)=-1.00( 50.0%)  1.00( 50.0%) 
 MO    27 (   11) HAS LZ(WEIGHT)=-2.00( 50.0%)  2.00( 50.0%) 
 MO    28 (   12) HAS LZ(WEIGHT)= 0.00(100.0%) 
 MO    29 (   12) HAS LZ(WEIGHT)=-1.00( 50.0%)  1.00( 50.0%) 
 MO    30 (   12) HAS LZ(WEIGHT)=-1.00( 50.0%)  1.00( 50.0%) 
 MO    31 (   13) HAS LZ(WEIGHT)= 0.00(100.0%) 
 MO    32 (   14) HAS LZ(WEIGHT)=-2.00( 50.0%)  2.00( 50.0%) 
 MO    33 (   14) HAS LZ(WEIGHT)=-1.00( 50.0%)  1.00( 50.0%) 
 MO    34 (   14) HAS LZ(WEIGHT)=-1.00( 50.0%)  1.00( 50.0%) 
 MO    35 (   14) HAS LZ(WEIGHT)=-2.00(  7.8%)  0.00( 84.3%)  2.00(  7.8%) 
 MO    36 (   14) HAS LZ(WEIGHT)=-2.00( 42.2%)  0.00( 15.7%)  2.00( 42.2%) 
 MO    37 (   15) HAS LZ(WEIGHT)= 0.00(100.0%) 
 MO    38 (   15) HAS LZ(WEIGHT)=-1.00( 50.0%)  1.00( 50.0%) 
 MO    39 (   15) HAS LZ(WEIGHT)=-1.00( 50.0%)  1.00( 50.0%) 
 MO    40 (   16) HAS LZ(WEIGHT)= 0.00(100.0%) 
 MO    41 (   17) HAS LZ(WEIGHT)=-2.00(  1.7%)  0.00( 96.7%)  2.00(  1.7%) 
 MO    42 (   17) HAS LZ(WEIGHT)=-2.00( 48.3%)  0.00(  3.3%)  2.00( 48.3%) 
 MO    43 (   17) HAS LZ(WEIGHT)=-2.00( 50.0%)  2.00( 50.0%) 
 MO    44 (   17) HAS LZ(WEIGHT)=-1.00( 50.0%)  1.00( 50.0%) 
 MO    45 (   17) HAS LZ(WEIGHT)=-1.00( 50.0%)  1.00( 50.0%) 
 MO    46 (   18) HAS LZ(WEIGHT)= 0.00(100.0%) 
 MO    47 (   18) HAS LZ(WEIGHT)=-1.00( 50.0%)  1.00( 50.0%) 
 MO    48 (   18) HAS LZ(WEIGHT)=-1.00( 50.0%)  1.00( 50.0%) 
 MO    49 (   19) HAS LZ(WEIGHT)=-2.00(  2.1%)  0.00( 95.9%)  2.00(  2.1%) 
 MO    50 (   19) HAS LZ(WEIGHT)=-2.00( 47.9%)  0.00(  4.1%)  2.00( 47.9%) 
 MO    51 (   19) HAS LZ(WEIGHT)=-2.00( 50.0%)  2.00( 50.0%) 
 MO    52 (   19) HAS LZ(WEIGHT)=-1.00( 50.0%)  1.00( 50.0%) 
 MO    53 (   19) HAS LZ(WEIGHT)=-1.00( 50.0%)  1.00( 50.0%) 
 MO    54 (   20) HAS LZ(WEIGHT)= 0.00(100.0%) 
 MO    55 (   21) HAS LZ(WEIGHT)= 0.00(100.0%) 
 MO    56 (   21) HAS LZ(WEIGHT)=-1.00( 50.0%)  1.00( 50.0%) 
 MO    57 (   21) HAS LZ(WEIGHT)=-1.00( 50.0%)  1.00( 50.0%) 
 MO    58 (   22) HAS LZ(WEIGHT)=-2.00( 11.6%)  0.00( 76.8%)  2.00( 11.6%) 
 MO    59 (   22) HAS LZ(WEIGHT)=-2.00( 38.4%)  0.00( 23.2%)  2.00( 38.4%) 
 MO    60 (   22) HAS LZ(WEIGHT)=-2.00( 50.0%)  2.00( 50.0%) 
 MO    61 (   22) HAS LZ(WEIGHT)=-1.00( 50.0%)  1.00( 50.0%) 
 MO    62 (   22) HAS LZ(WEIGHT)=-1.00( 50.0%)  1.00( 50.0%) 
 MO    63 (   23) HAS LZ(WEIGHT)= 0.00(100.0%) 
 MO    64 (   23) HAS LZ(WEIGHT)=-1.00( 50.0%)  1.00( 50.0%) 
 MO    65 (   23) HAS LZ(WEIGHT)=-1.00( 50.0%)  1.00( 50.0%) 
 MO    66 (   24) HAS LZ(WEIGHT)= 0.00(100.0%) 
 MO    67 (   25) HAS LZ(WEIGHT)=-2.00( 17.8%)  0.00( 64.4%)  2.00( 17.8%) 
 MO    68 (   25) HAS LZ(WEIGHT)=-2.00( 32.2%)  0.00( 35.6%)  2.00( 32.2%) 
 MO    69 (   25) HAS LZ(WEIGHT)=-2.00( 50.0%)  2.00( 50.0%) 
 MO    70 (   25) HAS LZ(WEIGHT)=-1.00( 50.0%)  1.00( 50.0%) 
 MO    71 (   25) HAS LZ(WEIGHT)=-1.00( 50.0%)  1.00( 50.0%) 
 MO    72 (   26) HAS LZ(WEIGHT)= 0.00(100.0%) 
 MO    73 (   26) HAS LZ(WEIGHT)=-1.00( 50.0%)  1.00( 50.0%) 
 MO    74 (   26) HAS LZ(WEIGHT)=-1.00( 50.0%)  1.00( 50.0%) 
 MO    75 (   27) HAS LZ(WEIGHT)= 0.00(100.0%) 
 MO    76 (   28) HAS LZ(WEIGHT)=-2.00( 10.2%)  0.00( 79.5%)  2.00( 10.2%) 
 MO    77 (   28) HAS LZ(WEIGHT)=-2.00( 39.8%)  0.00( 20.5%)  2.00( 39.8%) 
 MO    78 (   28) HAS LZ(WEIGHT)=-1.00( 50.0%)  1.00( 50.0%) 
 MO    79 (   28) HAS LZ(WEIGHT)=-1.00( 50.0%)  1.00( 50.0%) 
 MO    80 (   28) HAS LZ(WEIGHT)=-2.00( 50.0%)  2.00( 50.0%) 
 MO    81 (   29) HAS LZ(WEIGHT)= 0.00(100.0%) 
 MO    82 (   29) HAS LZ(WEIGHT)=-1.00( 50.0%)  1.00( 50.0%) 
 MO    83 (   29) HAS LZ(WEIGHT)=-1.00( 50.0%)  1.00( 50.0%) 
 MO    84 (   30) HAS LZ(WEIGHT)= 0.00(100.0%) 
 MO    85 (   31) HAS LZ(WEIGHT)=-1.00( 50.0%)  1.00( 50.0%) 
 MO    86 (   31) HAS LZ(WEIGHT)= 0.00(100.0%) 
 MO    87 (   31) HAS LZ(WEIGHT)=-1.00( 50.0%)  1.00( 50.0%) 
 MO    88 (   32) HAS LZ(WEIGHT)=-1.00( 50.0%)  1.00( 50.0%) 
 MO    89 (   32) HAS LZ(WEIGHT)=-1.00( 50.0%)  1.00( 50.0%) 
 MO    90 (   32) HAS LZ(WEIGHT)=-2.00( 50.0%)  2.00( 50.0%) 
 MO    91 (   32) HAS LZ(WEIGHT)=-2.00( 43.3%)  0.00( 13.3%)  2.00( 43.3%) 
 MO    92 (   32) HAS LZ(WEIGHT)=-2.00(  6.7%)  0.00( 86.7%)  2.00(  6.7%) 
 MO    93 (   33) HAS LZ(WEIGHT)= 0.00(100.0%) 
 MO    94 (   34) HAS LZ(WEIGHT)= 0.00(100.0%) 
 MO    95 (   34) HAS LZ(WEIGHT)=-1.00( 50.0%)  1.00( 50.0%) 
 MO    96 (   34) HAS LZ(WEIGHT)=-1.00( 50.0%)  1.00( 50.0%) 
 MO    97 (   35) HAS LZ(WEIGHT)= 0.00(100.0%) 
 MO    98 (   36) HAS LZ(WEIGHT)= 0.00(100.0%) 
 MO    99 (   37) HAS LZ(WEIGHT)=-1.00( 50.0%)  1.00( 50.0%) 
 MO   100 (   37) HAS LZ(WEIGHT)= 0.00(100.0%) 
 MO   101 (   37) HAS LZ(WEIGHT)=-1.00( 50.0%)  1.00( 50.0%) 
 MO   102 (   38) HAS LZ(WEIGHT)= 0.00(100.0%) 
 MO   103 (   39) HAS LZ(WEIGHT)=-1.00( 50.0%)  1.00( 50.0%) 
 MO   104 (   39) HAS LZ(WEIGHT)=-1.00( 50.0%)  1.00( 50.0%) 
 MO   105 (   39) HAS LZ(WEIGHT)= 0.00(100.0%) 
 MO   106 (   40) HAS LZ(WEIGHT)= 0.00(100.0%) 
 MO   107 (   41) HAS LZ(WEIGHT)= 0.00(100.0%) 
 MO   108 (   42) HAS LZ(WEIGHT)= 0.00(100.0%) 
 MO   109 (   43) HAS LZ(WEIGHT)= 0.00(100.0%) 
 MO   110 (   44) HAS LZ(WEIGHT)= 0.00(100.0%) 

          ------------
          EIGENVECTORS
          ------------

                      1          2          3          4          5
                 -438.9501   -57.7704   -50.4752   -50.4752   -50.4752
                     AG         AG         B3U        B2U        B1U 
    1  AS 1  S    0.000041  -0.000013   0.000000   0.000000   0.000000
    2  AS 1  S    0.000158  -0.000050   0.000000   0.000000   0.000000
    3  AS 1  S    0.000484  -0.000155   0.000000   0.000000   0.000000
    4  AS 1  S    0.001317  -0.000423   0.000000   0.000000   0.000000
    5  AS 1  S    0.003382  -0.001089   0.000000   0.000000   0.000000
    6  AS 1  S    0.008603  -0.002786   0.000000   0.000000   0.000000
    7  AS 1  S    0.021894  -0.007192   0.000000   0.000000   0.000000
    8  AS 1  S    0.055366  -0.018603   0.000000   0.000000   0.000000
    9  AS 1  S    0.130840  -0.046515   0.000000   0.000000   0.000000
   10  AS 1  S    0.260714  -0.103392   0.000000   0.000000   0.000000
   11  AS 1  S    0.367344  -0.186198   0.000000   0.000000   0.000000
   12  AS 1  S    0.266527  -0.184410   0.000000   0.000000   0.000000
   13  AS 1  S    0.051570   0.158377   0.000000   0.000000   0.000000
   14  AS 1  S   -0.006218   0.592540   0.000000   0.000000   0.000000
   15  AS 1  S    0.003259   0.381836   0.000000   0.000000   0.000000
   16  AS 1  S   -0.001632   0.043009   0.000000   0.000000   0.000000
   17  AS 1  S    0.000938  -0.003151   0.000000   0.000000   0.000000
   18  AS 1  S   -0.000391   0.001648   0.000000   0.000000   0.000000
   19  AS 1  S    0.000098  -0.000273   0.000000   0.000000   0.000000
   20  AS 1  S   -0.000032   0.000129   0.000000   0.000000   0.000000
   21  AS 1  X    0.000000   0.000000   0.000112   0.000000   0.000000
   22  AS 1  Y    0.000000   0.000000   0.000000   0.000112   0.000000
   23  AS 1  Z    0.000000   0.000000   0.000000   0.000000   0.000112
   24  AS 1  X    0.000000   0.000000   0.000649   0.000000   0.000000
   25  AS 1  Y    0.000000   0.000000   0.000000   0.000649   0.000000
   26  AS 1  Z    0.000000   0.000000   0.000000   0.000000   0.000649
   27  AS 1  X    0.000000   0.000000   0.003288   0.000000   0.000000
   28  AS 1  Y    0.000000   0.000000   0.000000   0.003288   0.000000
   29  AS 1  Z    0.000000   0.000000   0.000000   0.000000   0.003288
   30  AS 1  X    0.000000   0.000000   0.014399   0.000000   0.000000
   31  AS 1  Y    0.000000   0.000000   0.000000   0.014399   0.000000
   32  AS 1  Z    0.000000   0.000000   0.000000   0.000000   0.014399
   33  AS 1  X    0.000000   0.000000   0.052041   0.000000   0.000000
   34  AS 1  Y    0.000000   0.000000   0.000000   0.052041   0.000000
   35  AS 1  Z    0.000000   0.000000   0.000000   0.000000   0.052041
   36  AS 1  X    0.000000   0.000000   0.147779   0.000000   0.000000
   37  AS 1  Y    0.000000   0.000000   0.000000   0.147779   0.000000
   38  AS 1  Z    0.000000   0.000000   0.000000   0.000000   0.147779
   39  AS 1  X    0.000000   0.000000   0.301259   0.000000   0.000000
   40  AS 1  Y    0.000000   0.000000   0.000000   0.301259   0.000000
   41  AS 1  Z    0.000000   0.000000   0.000000   0.000000   0.301259
   42  AS 1  X    0.000000   0.000000   0.385571   0.000000   0.000000
   43  AS 1  Y    0.000000   0.000000   0.000000   0.385571   0.000000
   44  AS 1  Z    0.000000   0.000000   0.000000   0.000000   0.385571
   45  AS 1  X    0.000000   0.000000   0.237765   0.000000   0.000000
   46  AS 1  Y    0.000000   0.000000   0.000000   0.237765   0.000000
   47  AS 1  Z    0.000000   0.000000   0.000000   0.000000   0.237765
   48  AS 1  X    0.000000   0.000000   0.047604   0.000000   0.000000
   49  AS 1  Y    0.000000   0.000000   0.000000   0.047604   0.000000
   50  AS 1  Z    0.000000   0.000000   0.000000   0.000000   0.047604
   51  AS 1  X    0.000000   0.000000   0.001707   0.000000   0.000000
   52  AS 1  Y    0.000000   0.000000   0.000000   0.001707   0.000000
   53  AS 1  Z    0.000000   0.000000   0.000000   0.000000   0.001707
   54  AS 1  X    0.000000   0.000000   0.000805   0.000000   0.000000
   55  AS 1  Y    0.000000   0.000000   0.000000   0.000805   0.000000
   56  AS 1  Z    0.000000   0.000000   0.000000   0.000000   0.000805
   57  AS 1  X    0.000000   0.000000  -0.000106   0.000000   0.000000
   58  AS 1  Y    0.000000   0.000000   0.000000  -0.000106   0.000000
   59  AS 1  Z    0.000000   0.000000   0.000000   0.000000  -0.000106
   60  AS 1  X    0.000000   0.000000   0.000057   0.000000   0.000000
   61  AS 1  Y    0.000000   0.000000   0.000000   0.000057   0.000000
   62  AS 1  Z    0.000000   0.000000   0.000000   0.000000   0.000057
   63  AS 1  X    0.000000   0.000000  -0.000019   0.000000   0.000000
   64  AS 1  Y    0.000000   0.000000   0.000000  -0.000019   0.000000
   65  AS 1  Z    0.000000   0.000000   0.000000   0.000000  -0.000019
   66  AS 1 XX    0.000000   0.000000   0.000000   0.000000   0.000000
   67  AS 1 YY    0.000000   0.000000   0.000000   0.000000   0.000000
   68  AS 1 ZZ    0.000000   0.000000   0.000000   0.000000   0.000000
   69  AS 1 XY    0.000000   0.000000   0.000000   0.000000   0.000000
   70  AS 1 XZ    0.000000   0.000000   0.000000   0.000000   0.000000
   71  AS 1 YZ    0.000000   0.000000   0.000000   0.000000   0.000000
   72  AS 1 XX    0.000000   0.000000   0.000000   0.000000   0.000000
   73  AS 1 YY    0.000000   0.000000   0.000000   0.000000   0.000000
   74  AS 1 ZZ    0.000000   0.000000   0.000000   0.000000   0.000000
   75  AS 1 XY    0.000000   0.000000   0.000000   0.000000   0.000000
   76  AS 1 XZ    0.000000   0.000000   0.000000   0.000000   0.000000
   77  AS 1 YZ    0.000000   0.000000   0.000000   0.000000   0.000000
   78  AS 1 XX    0.000000   0.000000   0.000000   0.000000   0.000000
   79  AS 1 YY    0.000000   0.000000   0.000000   0.000000   0.000000
   80  AS 1 ZZ    0.000000   0.000000   0.000000   0.000000   0.000000
   81  AS 1 XY    0.000000   0.000000   0.000000   0.000000   0.000000
   82  AS 1 XZ    0.000000   0.000000   0.000000   0.000000   0.000000
   83  AS 1 YZ    0.000000   0.000000   0.000000   0.000000   0.000000
   84  AS 1 XX    0.000000   0.000000   0.000000   0.000000   0.000000
   85  AS 1 YY    0.000000   0.000000   0.000000   0.000000   0.000000
   86  AS 1 ZZ    0.000000   0.000000   0.000000   0.000000   0.000000
   87  AS 1 XY    0.000000   0.000000   0.000000   0.000000   0.000000
   88  AS 1 XZ    0.000000   0.000000   0.000000   0.000000   0.000000
   89  AS 1 YZ    0.000000   0.000000   0.000000   0.000000   0.000000
   90  AS 1 XX    0.000000   0.000000   0.000000   0.000000   0.000000
   91  AS 1 YY    0.000000   0.000000   0.000000   0.000000   0.000000
   92  AS 1 ZZ    0.000000   0.000000   0.000000   0.000000   0.000000
   93  AS 1 XY    0.000000   0.000000   0.000000   0.000000   0.000000
   94  AS 1 XZ    0.000000   0.000000   0.000000   0.000000   0.000000
   95  AS 1 YZ    0.000000   0.000000   0.000000   0.000000   0.000000
   96  AS 1 XX    0.000000   0.000000   0.000000   0.000000   0.000000
   97  AS 1 YY    0.000000   0.000000   0.000000   0.000000   0.000000
   98  AS 1 ZZ    0.000000   0.000000   0.000000   0.000000   0.000000
   99  AS 1 XY    0.000000   0.000000   0.000000   0.000000   0.000000
  100  AS 1 XZ    0.000000   0.000000   0.000000   0.000000   0.000000
  101  AS 1 YZ    0.000000   0.000000   0.000000   0.000000   0.000000
  102  AS 1 XX    0.000000   0.000000   0.000000   0.000000   0.000000
  103  AS 1 YY    0.000000   0.000000   0.000000   0.000000   0.000000
  104  AS 1 ZZ    0.000000   0.000000   0.000000   0.000000   0.000000
  105  AS 1 XY    0.000000   0.000000   0.000000   0.000000   0.000000
  106  AS 1 XZ    0.000000   0.000000   0.000000   0.000000   0.000000
  107  AS 1 YZ    0.000000   0.000000   0.000000   0.000000   0.000000
  108  AS 1 XX    0.000000   0.000000   0.000000   0.000000   0.000000
  109  AS 1 YY    0.000000   0.000000   0.000000   0.000000   0.000000
  110  AS 1 ZZ    0.000000   0.000000   0.000000   0.000000   0.000000
  111  AS 1 XY    0.000000   0.000000   0.000000   0.000000   0.000000
  112  AS 1 XZ    0.000000   0.000000   0.000000   0.000000   0.000000
  113  AS 1 YZ    0.000000   0.000000   0.000000   0.000000   0.000000
  114  AS 1 XX    0.000000   0.000000   0.000000   0.000000   0.000000
  115  AS 1 YY    0.000000   0.000000   0.000000   0.000000   0.000000
  116  AS 1 ZZ    0.000000   0.000000   0.000000   0.000000   0.000000
  117  AS 1 XY    0.000000   0.000000   0.000000   0.000000   0.000000
  118  AS 1 XZ    0.000000   0.000000   0.000000   0.000000   0.000000
  119  AS 1 YZ    0.000000   0.000000   0.000000   0.000000   0.000000

                      6          7          8          9         10
                   -8.2559    -5.9091    -5.9091    -5.9091    -2.0501
                     AG         B3U        B2U        B1U        AG  
    1  AS 1  S    0.000005   0.000000   0.000000   0.000000   0.000000
    2  AS 1  S    0.000020   0.000000   0.000000   0.000000   0.000000
    3  AS 1  S    0.000061   0.000000   0.000000   0.000000   0.000000
    4  AS 1  S    0.000165   0.000000   0.000000   0.000000   0.000000
    5  AS 1  S    0.000426   0.000000   0.000000   0.000000   0.000000
    6  AS 1  S    0.001090   0.000000   0.000000   0.000000   0.000000
    7  AS 1  S    0.002824   0.000000   0.000000   0.000000   0.000000
    8  AS 1  S    0.007303   0.000000   0.000000   0.000000   0.000000
    9  AS 1  S    0.018470   0.000000   0.000000   0.000000   0.000000
   10  AS 1  S    0.041426   0.000000   0.000000   0.000000   0.000000
   11  AS 1  S    0.077788   0.000000   0.000000   0.000000   0.000000
   12  AS 1  S    0.080273   0.000000   0.000000   0.000000   0.000000
   13  AS 1  S   -0.081045   0.000000   0.000000   0.000000   0.000000
   14  AS 1  S   -0.431283   0.000000   0.000000   0.000000   0.000000
   15  AS 1  S   -0.357852   0.000000   0.000000   0.000000   0.000000
   16  AS 1  S    0.453074   0.000000   0.000000   0.000000   0.000000
   17  AS 1  S    0.680013   0.000000   0.000000   0.000000   0.000000
   18  AS 1  S    0.181272   0.000000   0.000000   0.000000   0.000000
   19  AS 1  S    0.003993   0.000000   0.000000   0.000000   0.000000
   20  AS 1  S   -0.001060   0.000000   0.000000   0.000000   0.000000
   21  AS 1  X    0.000000  -0.000044   0.000000   0.000000   0.000000
   22  AS 1  Y    0.000000   0.000000  -0.000044   0.000000   0.000000
   23  AS 1  Z    0.000000   0.000000   0.000000  -0.000044   0.000000
   24  AS 1  X    0.000000  -0.000255   0.000000   0.000000   0.000000
   25  AS 1  Y    0.000000   0.000000  -0.000255   0.000000   0.000000
   26  AS 1  Z    0.000000   0.000000   0.000000  -0.000255   0.000000
   27  AS 1  X    0.000000  -0.001295   0.000000   0.000000   0.000000
   28  AS 1  Y    0.000000   0.000000  -0.001295   0.000000   0.000000
   29  AS 1  Z    0.000000   0.000000   0.000000  -0.001295   0.000000
   30  AS 1  X    0.000000  -0.005733   0.000000   0.000000   0.000000
   31  AS 1  Y    0.000000   0.000000  -0.005733   0.000000   0.000000
   32  AS 1  Z    0.000000   0.000000   0.000000  -0.005733   0.000000
   33  AS 1  X    0.000000  -0.021048   0.000000   0.000000   0.000000
   34  AS 1  Y    0.000000   0.000000  -0.021048   0.000000   0.000000
   35  AS 1  Z    0.000000   0.000000   0.000000  -0.021048   0.000000
   36  AS 1  X    0.000000  -0.062116   0.000000   0.000000   0.000000
   37  AS 1  Y    0.000000   0.000000  -0.062116   0.000000   0.000000
   38  AS 1  Z    0.000000   0.000000   0.000000  -0.062116   0.000000
   39  AS 1  X    0.000000  -0.132638   0.000000   0.000000   0.000000
   40  AS 1  Y    0.000000   0.000000  -0.132638   0.000000   0.000000
   41  AS 1  Z    0.000000   0.000000   0.000000  -0.132638   0.000000
   42  AS 1  X    0.000000  -0.180775   0.000000   0.000000   0.000000
   43  AS 1  Y    0.000000   0.000000  -0.180775   0.000000   0.000000
   44  AS 1  Z    0.000000   0.000000   0.000000  -0.180775   0.000000
   45  AS 1  X    0.000000  -0.042861   0.000000   0.000000   0.000000
   46  AS 1  Y    0.000000   0.000000  -0.042861   0.000000   0.000000
   47  AS 1  Z    0.000000   0.000000   0.000000  -0.042861   0.000000
   48  AS 1  X    0.000000   0.315942   0.000000   0.000000   0.000000
   49  AS 1  Y    0.000000   0.000000   0.315942   0.000000   0.000000
   50  AS 1  Z    0.000000   0.000000   0.000000   0.315942   0.000000
   51  AS 1  X    0.000000   0.517071   0.000000   0.000000   0.000000
   52  AS 1  Y    0.000000   0.000000   0.517071   0.000000   0.000000
   53  AS 1  Z    0.000000   0.000000   0.000000   0.517071   0.000000
   54  AS 1  X    0.000000   0.285849   0.000000   0.000000   0.000000
   55  AS 1  Y    0.000000   0.000000   0.285849   0.000000   0.000000
   56  AS 1  Z    0.000000   0.000000   0.000000   0.285849   0.000000
   57  AS 1  X    0.000000   0.026249   0.000000   0.000000   0.000000
   58  AS 1  Y    0.000000   0.000000   0.026249   0.000000   0.000000
   59  AS 1  Z    0.000000   0.000000   0.000000   0.026249   0.000000
   60  AS 1  X    0.000000  -0.003225   0.000000   0.000000   0.000000
   61  AS 1  Y    0.000000   0.000000  -0.003225   0.000000   0.000000
   62  AS 1  Z    0.000000   0.000000   0.000000  -0.003225   0.000000
   63  AS 1  X    0.000000   0.000905   0.000000   0.000000   0.000000
   64  AS 1  Y    0.000000   0.000000   0.000905   0.000000   0.000000
   65  AS 1  Z    0.000000   0.000000   0.000000   0.000905   0.000000
   66  AS 1 XX    0.000000   0.000000   0.000000   0.000000  -0.000144
   67  AS 1 YY    0.000000   0.000000   0.000000   0.000000  -0.000214
   68  AS 1 ZZ    0.000000   0.000000   0.000000   0.000000   0.000358
   69  AS 1 XY    0.000000   0.000000   0.000000   0.000000   0.000000
   70  AS 1 XZ    0.000000   0.000000   0.000000   0.000000   0.000000
   71  AS 1 YZ    0.000000   0.000000   0.000000   0.000000   0.000000
   72  AS 1 XX    0.000000   0.000000   0.000000   0.000000  -0.001304
   73  AS 1 YY    0.000000   0.000000   0.000000   0.000000  -0.001942
   74  AS 1 ZZ    0.000000   0.000000   0.000000   0.000000   0.003246
   75  AS 1 XY    0.000000   0.000000   0.000000   0.000000   0.000000
   76  AS 1 XZ    0.000000   0.000000   0.000000   0.000000   0.000000
   77  AS 1 YZ    0.000000   0.000000   0.000000   0.000000   0.000000
   78  AS 1 XX    0.000000   0.000000   0.000000   0.000000  -0.006848
   79  AS 1 YY    0.000000   0.000000   0.000000   0.000000  -0.010195
   80  AS 1 ZZ    0.000000   0.000000   0.000000   0.000000   0.017043
   81  AS 1 XY    0.000000   0.000000   0.000000   0.000000   0.000000
   82  AS 1 XZ    0.000000   0.000000   0.000000   0.000000   0.000000
   83  AS 1 YZ    0.000000   0.000000   0.000000   0.000000   0.000000
   84  AS 1 XX    0.000000   0.000000   0.000000   0.000000  -0.024381
   85  AS 1 YY    0.000000   0.000000   0.000000   0.000000  -0.036295
   86  AS 1 ZZ    0.000000   0.000000   0.000000   0.000000   0.060676
   87  AS 1 XY    0.000000   0.000000   0.000000   0.000000   0.000000
   88  AS 1 XZ    0.000000   0.000000   0.000000   0.000000   0.000000
   89  AS 1 YZ    0.000000   0.000000   0.000000   0.000000   0.000000
   90  AS 1 XX    0.000000   0.000000   0.000000   0.000000  -0.065396
   91  AS 1 YY    0.000000   0.000000   0.000000   0.000000  -0.097352
   92  AS 1 ZZ    0.000000   0.000000   0.000000   0.000000   0.162748
   93  AS 1 XY    0.000000   0.000000   0.000000   0.000000   0.000000
   94  AS 1 XZ    0.000000   0.000000   0.000000   0.000000   0.000000
   95  AS 1 YZ    0.000000   0.000000   0.000000   0.000000   0.000000
   96  AS 1 XX    0.000000   0.000000   0.000000   0.000000  -0.119503
   97  AS 1 YY    0.000000   0.000000   0.000000   0.000000  -0.177901
   98  AS 1 ZZ    0.000000   0.000000   0.000000   0.000000   0.297404
   99  AS 1 XY    0.000000   0.000000   0.000000   0.000000   0.000000
  100  AS 1 XZ    0.000000   0.000000   0.000000   0.000000   0.000000
  101  AS 1 YZ    0.000000   0.000000   0.000000   0.000000   0.000000
  102  AS 1 XX    0.000000   0.000000   0.000000   0.000000  -0.149108
  103  AS 1 YY    0.000000   0.000000   0.000000   0.000000  -0.221973
  104  AS 1 ZZ    0.000000   0.000000   0.000000   0.000000   0.371081
  105  AS 1 XY    0.000000   0.000000   0.000000   0.000000   0.000000
  106  AS 1 XZ    0.000000   0.000000   0.000000   0.000000   0.000000
  107  AS 1 YZ    0.000000   0.000000   0.000000   0.000000   0.000000
  108  AS 1 XX    0.000000   0.000000   0.000000   0.000000  -0.118947
  109  AS 1 YY    0.000000   0.000000   0.000000   0.000000  -0.177073
  110  AS 1 ZZ    0.000000   0.000000   0.000000   0.000000   0.296020
  111  AS 1 XY    0.000000   0.000000   0.000000   0.000000   0.000000
  112  AS 1 XZ    0.000000   0.000000   0.000000   0.000000   0.000000
  113  AS 1 YZ    0.000000   0.000000   0.000000   0.000000   0.000000
  114  AS 1 XX    0.000000   0.000000   0.000000   0.000000  -0.039412
  115  AS 1 YY    0.000000   0.000000   0.000000   0.000000  -0.058671
  116  AS 1 ZZ    0.000000   0.000000   0.000000   0.000000   0.098082
  117  AS 1 XY    0.000000   0.000000   0.000000   0.000000   0.000000
  118  AS 1 XZ    0.000000   0.000000   0.000000   0.000000   0.000000
  119  AS 1 YZ    0.000000   0.000000   0.000000   0.000000   0.000000

                     11         12         13         14         15
                   -2.0501    -2.0501    -2.0501    -2.0501    -0.4438
                     B2G        B3G        B1G        AG         AG  
    1  AS 1  S    0.000000   0.000000   0.000000   0.000000  -0.000001
    2  AS 1  S    0.000000   0.000000   0.000000   0.000000  -0.000005
    3  AS 1  S    0.000000   0.000000   0.000000   0.000000  -0.000017
    4  AS 1  S    0.000000   0.000000   0.000000   0.000000  -0.000045
    5  AS 1  S    0.000000   0.000000   0.000000   0.000000  -0.000118
    6  AS 1  S    0.000000   0.000000   0.000000   0.000000  -0.000300
    7  AS 1  S    0.000000   0.000000   0.000000   0.000000  -0.000780
    8  AS 1  S    0.000000   0.000000   0.000000   0.000000  -0.002007
    9  AS 1  S    0.000000   0.000000   0.000000   0.000000  -0.005118
   10  AS 1  S    0.000000   0.000000   0.000000   0.000000  -0.011388
   11  AS 1  S    0.000000   0.000000   0.000000   0.000000  -0.021802
   12  AS 1  S    0.000000   0.000000   0.000000   0.000000  -0.022038
   13  AS 1  S    0.000000   0.000000   0.000000   0.000000   0.021883
   14  AS 1  S    0.000000   0.000000   0.000000   0.000000   0.133771
   15  AS 1  S    0.000000   0.000000   0.000000   0.000000   0.105722
   16  AS 1  S    0.000000   0.000000   0.000000   0.000000  -0.155577
   17  AS 1  S    0.000000   0.000000   0.000000   0.000000  -0.400173
   18  AS 1  S    0.000000   0.000000   0.000000   0.000000  -0.132657
   19  AS 1  S    0.000000   0.000000   0.000000   0.000000   0.717068
   20  AS 1  S    0.000000   0.000000   0.000000   0.000000   0.494914
   21  AS 1  X    0.000000   0.000000   0.000000   0.000000   0.000000
   22  AS 1  Y    0.000000   0.000000   0.000000   0.000000   0.000000
   23  AS 1  Z    0.000000   0.000000   0.000000   0.000000   0.000000
   24  AS 1  X    0.000000   0.000000   0.000000   0.000000   0.000000
   25  AS 1  Y    0.000000   0.000000   0.000000   0.000000   0.000000
   26  AS 1  Z    0.000000   0.000000   0.000000   0.000000   0.000000
   27  AS 1  X    0.000000   0.000000   0.000000   0.000000   0.000000
   28  AS 1  Y    0.000000   0.000000   0.000000   0.000000   0.000000
   29  AS 1  Z    0.000000   0.000000   0.000000   0.000000   0.000000
   30  AS 1  X    0.000000   0.000000   0.000000   0.000000   0.000000
   31  AS 1  Y    0.000000   0.000000   0.000000   0.000000   0.000000
   32  AS 1  Z    0.000000   0.000000   0.000000   0.000000   0.000000
   33  AS 1  X    0.000000   0.000000   0.000000   0.000000   0.000000
   34  AS 1  Y    0.000000   0.000000   0.000000   0.000000   0.000000
   35  AS 1  Z    0.000000   0.000000   0.000000   0.000000   0.000000
   36  AS 1  X    0.000000   0.000000   0.000000   0.000000   0.000000
   37  AS 1  Y    0.000000   0.000000   0.000000   0.000000   0.000000
   38  AS 1  Z    0.000000   0.000000   0.000000   0.000000   0.000000
   39  AS 1  X    0.000000   0.000000   0.000000   0.000000   0.000000
   40  AS 1  Y    0.000000   0.000000   0.000000   0.000000   0.000000
   41  AS 1  Z    0.000000   0.000000   0.000000   0.000000   0.000000
   42  AS 1  X    0.000000   0.000000   0.000000   0.000000   0.000000
   43  AS 1  Y    0.000000   0.000000   0.000000   0.000000   0.000000
   44  AS 1  Z    0.000000   0.000000   0.000000   0.000000   0.000000
   45  AS 1  X    0.000000   0.000000   0.000000   0.000000   0.000000
   46  AS 1  Y    0.000000   0.000000   0.000000   0.000000   0.000000
   47  AS 1  Z    0.000000   0.000000   0.000000   0.000000   0.000000
   48  AS 1  X    0.000000   0.000000   0.000000   0.000000   0.000000
   49  AS 1  Y    0.000000   0.000000   0.000000   0.000000   0.000000
   50  AS 1  Z    0.000000   0.000000   0.000000   0.000000   0.000000
   51  AS 1  X    0.000000   0.000000   0.000000   0.000000   0.000000
   52  AS 1  Y    0.000000   0.000000   0.000000   0.000000   0.000000
   53  AS 1  Z    0.000000   0.000000   0.000000   0.000000   0.000000
   54  AS 1  X    0.000000   0.000000   0.000000   0.000000   0.000000
   55  AS 1  Y    0.000000   0.000000   0.000000   0.000000   0.000000
   56  AS 1  Z    0.000000   0.000000   0.000000   0.000000   0.000000
   57  AS 1  X    0.000000   0.000000   0.000000   0.000000   0.000000
   58  AS 1  Y    0.000000   0.000000   0.000000   0.000000   0.000000
   59  AS 1  Z    0.000000   0.000000   0.000000   0.000000   0.000000
   60  AS 1  X    0.000000   0.000000   0.000000   0.000000   0.000000
   61  AS 1  Y    0.000000   0.000000   0.000000   0.000000   0.000000
   62  AS 1  Z    0.000000   0.000000   0.000000   0.000000   0.000000
   63  AS 1  X    0.000000   0.000000   0.000000   0.000000   0.000000
   64  AS 1  Y    0.000000   0.000000   0.000000   0.000000   0.000000
   65  AS 1  Z    0.000000   0.000000   0.000000   0.000000   0.000000
   66  AS 1 XX    0.000000   0.000000   0.000000   0.000330   0.000000
   67  AS 1 YY    0.000000   0.000000   0.000000  -0.000290   0.000000
   68  AS 1 ZZ    0.000000   0.000000   0.000000  -0.000041   0.000000
   69  AS 1 XY    0.000000   0.000000   0.000360   0.000000   0.000000
   70  AS 1 XZ    0.000360   0.000000   0.000000   0.000000   0.000000
   71  AS 1 YZ    0.000000   0.000360   0.000000   0.000000   0.000000
   72  AS 1 XX    0.000000   0.000000   0.000000   0.002995   0.000000
   73  AS 1 YY    0.000000   0.000000   0.000000  -0.002627   0.000000
   74  AS 1 ZZ    0.000000   0.000000   0.000000  -0.000368   0.000000
   75  AS 1 XY    0.000000   0.000000   0.003267   0.000000   0.000000
   76  AS 1 XZ    0.003267   0.000000   0.000000   0.000000   0.000000
   77  AS 1 YZ    0.000000   0.003267   0.000000   0.000000   0.000000
   78  AS 1 XX    0.000000   0.000000   0.000000   0.015726   0.000000
   79  AS 1 YY    0.000000   0.000000   0.000000  -0.013794   0.000000
   80  AS 1 ZZ    0.000000   0.000000   0.000000  -0.001932   0.000000
   81  AS 1 XY    0.000000   0.000000   0.017152   0.000000   0.000000
   82  AS 1 XZ    0.017152   0.000000   0.000000   0.000000   0.000000
   83  AS 1 YZ    0.000000   0.017152   0.000000   0.000000   0.000000
   84  AS 1 XX    0.000000   0.000000   0.000000   0.055986   0.000000
   85  AS 1 YY    0.000000   0.000000   0.000000  -0.049108   0.000000
   86  AS 1 ZZ    0.000000   0.000000   0.000000  -0.006879   0.000000
   87  AS 1 XY    0.000000   0.000000   0.061065   0.000000   0.000000
   88  AS 1 XZ    0.061065   0.000000   0.000000   0.000000   0.000000
   89  AS 1 YZ    0.000000   0.061065   0.000000   0.000000   0.000000
   90  AS 1 XX    0.000000   0.000000   0.000000   0.150169   0.000000
   91  AS 1 YY    0.000000   0.000000   0.000000  -0.131719   0.000000
   92  AS 1 ZZ    0.000000   0.000000   0.000000  -0.018450   0.000000
   93  AS 1 XY    0.000000   0.000000   0.163790   0.000000   0.000000
   94  AS 1 XZ    0.163790   0.000000   0.000000   0.000000   0.000000
   95  AS 1 YZ    0.000000   0.163790   0.000000   0.000000   0.000000
   96  AS 1 XX    0.000000   0.000000   0.000000   0.274417   0.000000
   97  AS 1 YY    0.000000   0.000000   0.000000  -0.240702   0.000000
   98  AS 1 ZZ    0.000000   0.000000   0.000000  -0.033716   0.000000
   99  AS 1 XY    0.000000   0.000000   0.299309   0.000000   0.000000
  100  AS 1 XZ    0.299309   0.000000   0.000000   0.000000   0.000000
  101  AS 1 YZ    0.000000   0.299309   0.000000   0.000000   0.000000
  102  AS 1 XX    0.000000   0.000000   0.000000   0.342400   0.000000
  103  AS 1 YY    0.000000   0.000000   0.000000  -0.300332   0.000000
  104  AS 1 ZZ    0.000000   0.000000   0.000000  -0.042068   0.000000
  105  AS 1 XY    0.000000   0.000000   0.373458   0.000000   0.000000
  106  AS 1 XZ    0.373458   0.000000   0.000000   0.000000   0.000000
  107  AS 1 YZ    0.000000   0.373458   0.000000   0.000000   0.000000
  108  AS 1 XX    0.000000   0.000000   0.000000   0.273140   0.000000
  109  AS 1 YY    0.000000   0.000000   0.000000  -0.239581   0.000000
  110  AS 1 ZZ    0.000000   0.000000   0.000000  -0.033559   0.000000
  111  AS 1 XY    0.000000   0.000000   0.297916   0.000000   0.000000
  112  AS 1 XZ    0.297916   0.000000   0.000000   0.000000   0.000000
  113  AS 1 YZ    0.000000   0.297916   0.000000   0.000000   0.000000
  114  AS 1 XX    0.000000   0.000000   0.000000   0.090501   0.000000
  115  AS 1 YY    0.000000   0.000000   0.000000  -0.079382   0.000000
  116  AS 1 ZZ    0.000000   0.000000   0.000000  -0.011119   0.000000
  117  AS 1 XY    0.000000   0.000000   0.098710   0.000000   0.000000
  118  AS 1 XZ    0.098710   0.000000   0.000000   0.000000   0.000000
  119  AS 1 YZ    0.000000   0.098710   0.000000   0.000000   0.000000

                     16         17         18         19         20
                   -0.1496    -0.1496    -0.1496     0.2334     0.2334
                     B3U        B1U        B2U        B1U        B3U 
    1  AS 1  S    0.000000   0.000000   0.000000   0.000000   0.000000
    2  AS 1  S    0.000000   0.000000   0.000000   0.000000   0.000000
    3  AS 1  S    0.000000   0.000000   0.000000   0.000000   0.000000
    4  AS 1  S    0.000000   0.000000   0.000000   0.000000   0.000000
    5  AS 1  S    0.000000   0.000000   0.000000   0.000000   0.000000
    6  AS 1  S    0.000000   0.000000   0.000000   0.000000   0.000000
    7  AS 1  S    0.000000   0.000000   0.000000   0.000000   0.000000
    8  AS 1  S    0.000000   0.000000   0.000000   0.000000   0.000000
    9  AS 1  S    0.000000   0.000000   0.000000   0.000000   0.000000
   10  AS 1  S    0.000000   0.000000   0.000000   0.000000   0.000000
   11  AS 1  S    0.000000   0.000000   0.000000   0.000000   0.000000
   12  AS 1  S    0.000000   0.000000   0.000000   0.000000   0.000000
   13  AS 1  S    0.000000   0.000000   0.000000   0.000000   0.000000
   14  AS 1  S    0.000000   0.000000   0.000000   0.000000   0.000000
   15  AS 1  S    0.000000   0.000000   0.000000   0.000000   0.000000
   16  AS 1  S    0.000000   0.000000   0.000000   0.000000   0.000000
   17  AS 1  S    0.000000   0.000000   0.000000   0.000000   0.000000
   18  AS 1  S    0.000000   0.000000   0.000000   0.000000   0.000000
   19  AS 1  S    0.000000   0.000000   0.000000   0.000000   0.000000
   20  AS 1  S    0.000000   0.000000   0.000000   0.000000   0.000000
   21  AS 1  X    0.000010   0.000000   0.000000   0.000000  -0.000006
   22  AS 1  Y    0.000000   0.000000   0.000010   0.000000   0.000000
   23  AS 1  Z    0.000000   0.000010   0.000000  -0.000006   0.000000
   24  AS 1  X    0.000057   0.000000   0.000000   0.000000  -0.000038
   25  AS 1  Y    0.000000   0.000000   0.000057   0.000000   0.000000
   26  AS 1  Z    0.000000   0.000057   0.000000  -0.000038   0.000000
   27  AS 1  X    0.000287   0.000000   0.000000   0.000000  -0.000174
   28  AS 1  Y    0.000000   0.000000   0.000287   0.000000   0.000000
   29  AS 1  Z    0.000000   0.000287   0.000000  -0.000174   0.000000
   30  AS 1  X    0.001281   0.000000   0.000000   0.000000  -0.000882
   31  AS 1  Y    0.000000   0.000000   0.001281   0.000000   0.000000
   32  AS 1  Z    0.000000   0.001281   0.000000  -0.000882   0.000000
   33  AS 1  X    0.004679   0.000000   0.000000   0.000000  -0.002782
   34  AS 1  Y    0.000000   0.000000   0.004679   0.000000   0.000000
   35  AS 1  Z    0.000000   0.004679   0.000000  -0.002782   0.000000
   36  AS 1  X    0.013980   0.000000   0.000000   0.000000  -0.009829
   37  AS 1  Y    0.000000   0.000000   0.013980   0.000000   0.000000
   38  AS 1  Z    0.000000   0.013980   0.000000  -0.009829   0.000000
   39  AS 1  X    0.029712   0.000000   0.000000   0.000000  -0.016687
   40  AS 1  Y    0.000000   0.000000   0.029712   0.000000   0.000000
   41  AS 1  Z    0.000000   0.029712   0.000000  -0.016687   0.000000
   42  AS 1  X    0.041602   0.000000   0.000000   0.000000  -0.033427
   43  AS 1  Y    0.000000   0.000000   0.041602   0.000000   0.000000
   44  AS 1  Z    0.000000   0.041602   0.000000  -0.033427   0.000000
   45  AS 1  X    0.005738   0.000000   0.000000   0.000000   0.011312
   46  AS 1  Y    0.000000   0.000000   0.005738   0.000000   0.000000
   47  AS 1  Z    0.000000   0.005738   0.000000   0.011312   0.000000
   48  AS 1  X   -0.083824   0.000000   0.000000   0.000000   0.023842
   49  AS 1  Y    0.000000   0.000000  -0.083824   0.000000   0.000000
   50  AS 1  Z    0.000000  -0.083824   0.000000   0.023842   0.000000
   51  AS 1  X   -0.154898   0.000000   0.000000   0.000000   0.162659
   52  AS 1  Y    0.000000   0.000000  -0.154898   0.000000   0.000000
   53  AS 1  Z    0.000000  -0.154898   0.000000   0.162659   0.000000
   54  AS 1  X   -0.077907   0.000000   0.000000   0.000000  -0.055941
   55  AS 1  Y    0.000000   0.000000  -0.077907   0.000000   0.000000
   56  AS 1  Z    0.000000  -0.077907   0.000000  -0.055941   0.000000
   57  AS 1  X    0.292449   0.000000   0.000000   0.000000   0.067726
   58  AS 1  Y    0.000000   0.000000   0.292449   0.000000   0.000000
   59  AS 1  Z    0.000000   0.292449   0.000000   0.067726   0.000000
   60  AS 1  X    0.566861   0.000000   0.000000   0.000000  -1.321789
   61  AS 1  Y    0.000000   0.000000   0.566861   0.000000   0.000000
   62  AS 1  Z    0.000000   0.566861   0.000000  -1.321789   0.000000
   63  AS 1  X    0.296312   0.000000   0.000000   0.000000   1.533407
   64  AS 1  Y    0.000000   0.000000   0.296312   0.000000   0.000000
   65  AS 1  Z    0.000000   0.296312   0.000000   1.533407   0.000000
   66  AS 1 XX    0.000000   0.000000   0.000000   0.000000   0.000000
   67  AS 1 YY    0.000000   0.000000   0.000000   0.000000   0.000000
   68  AS 1 ZZ    0.000000   0.000000   0.000000   0.000000   0.000000
   69  AS 1 XY    0.000000   0.000000   0.000000   0.000000   0.000000
   70  AS 1 XZ    0.000000   0.000000   0.000000   0.000000   0.000000
   71  AS 1 YZ    0.000000   0.000000   0.000000   0.000000   0.000000
   72  AS 1 XX    0.000000   0.000000   0.000000   0.000000   0.000000
   73  AS 1 YY    0.000000   0.000000   0.000000   0.000000   0.000000
   74  AS 1 ZZ    0.000000   0.000000   0.000000   0.000000   0.000000
   75  AS 1 XY    0.000000   0.000000   0.000000   0.000000   0.000000
   76  AS 1 XZ    0.000000   0.000000   0.000000   0.000000   0.000000
   77  AS 1 YZ    0.000000   0.000000   0.000000   0.000000   0.000000
   78  AS 1 XX    0.000000   0.000000   0.000000   0.000000   0.000000
   79  AS 1 YY    0.000000   0.000000   0.000000   0.000000   0.000000
   80  AS 1 ZZ    0.000000   0.000000   0.000000   0.000000   0.000000
   81  AS 1 XY    0.000000   0.000000   0.000000   0.000000   0.000000
   82  AS 1 XZ    0.000000   0.000000   0.000000   0.000000   0.000000
   83  AS 1 YZ    0.000000   0.000000   0.000000   0.000000   0.000000
   84  AS 1 XX    0.000000   0.000000   0.000000   0.000000   0.000000
   85  AS 1 YY    0.000000   0.000000   0.000000   0.000000   0.000000
   86  AS 1 ZZ    0.000000   0.000000   0.000000   0.000000   0.000000
   87  AS 1 XY    0.000000   0.000000   0.000000   0.000000   0.000000
   88  AS 1 XZ    0.000000   0.000000   0.000000   0.000000   0.000000
   89  AS 1 YZ    0.000000   0.000000   0.000000   0.000000   0.000000
   90  AS 1 XX    0.000000   0.000000   0.000000   0.000000   0.000000
   91  AS 1 YY    0.000000   0.000000   0.000000   0.000000   0.000000
   92  AS 1 ZZ    0.000000   0.000000   0.000000   0.000000   0.000000
   93  AS 1 XY    0.000000   0.000000   0.000000   0.000000   0.000000
   94  AS 1 XZ    0.000000   0.000000   0.000000   0.000000   0.000000
   95  AS 1 YZ    0.000000   0.000000   0.000000   0.000000   0.000000
   96  AS 1 XX    0.000000   0.000000   0.000000   0.000000   0.000000
   97  AS 1 YY    0.000000   0.000000   0.000000   0.000000   0.000000
   98  AS 1 ZZ    0.000000   0.000000   0.000000   0.000000   0.000000
   99  AS 1 XY    0.000000   0.000000   0.000000   0.000000   0.000000
  100  AS 1 XZ    0.000000   0.000000   0.000000   0.000000   0.000000
  101  AS 1 YZ    0.000000   0.000000   0.000000   0.000000   0.000000
  102  AS 1 XX    0.000000   0.000000   0.000000   0.000000   0.000000
  103  AS 1 YY    0.000000   0.000000   0.000000   0.000000   0.000000
  104  AS 1 ZZ    0.000000   0.000000   0.000000   0.000000   0.000000
  105  AS 1 XY    0.000000   0.000000   0.000000   0.000000   0.000000
  106  AS 1 XZ    0.000000   0.000000   0.000000   0.000000   0.000000
  107  AS 1 YZ    0.000000   0.000000   0.000000   0.000000   0.000000
  108  AS 1 XX    0.000000   0.000000   0.000000   0.000000   0.000000
  109  AS 1 YY    0.000000   0.000000   0.000000   0.000000   0.000000
  110  AS 1 ZZ    0.000000   0.000000   0.000000   0.000000   0.000000
  111  AS 1 XY    0.000000   0.000000   0.000000   0.000000   0.000000
  112  AS 1 XZ    0.000000   0.000000   0.000000   0.000000   0.000000
  113  AS 1 YZ    0.000000   0.000000   0.000000   0.000000   0.000000
  114  AS 1 XX    0.000000   0.000000   0.000000   0.000000   0.000000
  115  AS 1 YY    0.000000   0.000000   0.000000   0.000000   0.000000
  116  AS 1 ZZ    0.000000   0.000000   0.000000   0.000000   0.000000
  117  AS 1 XY    0.000000   0.000000   0.000000   0.000000   0.000000
  118  AS 1 XZ    0.000000   0.000000   0.000000   0.000000   0.000000
  119  AS 1 YZ    0.000000   0.000000   0.000000   0.000000   0.000000

                     21         22         23         24         25
                    0.2334     0.3502     1.0110     1.0110     1.0110
                     B2U        AG         AG         AG         B2G 
    1  AS 1  S    0.000000  -0.000001   0.000000   0.000000   0.000000
    2  AS 1  S    0.000000  -0.000004   0.000000   0.000000   0.000000
    3  AS 1  S    0.000000  -0.000013   0.000000   0.000000   0.000000
    4  AS 1  S    0.000000  -0.000036   0.000000   0.000000   0.000000
    5  AS 1  S    0.000000  -0.000091   0.000000   0.000000   0.000000
    6  AS 1  S    0.000000  -0.000243   0.000000   0.000000   0.000000
    7  AS 1  S    0.000000  -0.000590   0.000000   0.000000   0.000000
    8  AS 1  S    0.000000  -0.001680   0.000000   0.000000   0.000000
    9  AS 1  S    0.000000  -0.003729   0.000000   0.000000   0.000000
   10  AS 1  S    0.000000  -0.009958   0.000000   0.000000   0.000000
   11  AS 1  S    0.000000  -0.014594   0.000000   0.000000   0.000000
   12  AS 1  S    0.000000  -0.023899   0.000000   0.000000   0.000000
   13  AS 1  S    0.000000   0.036944   0.000000   0.000000   0.000000
   14  AS 1  S    0.000000   0.057598   0.000000   0.000000   0.000000
   15  AS 1  S    0.000000   0.179359   0.000000   0.000000   0.000000
   16  AS 1  S    0.000000  -0.349412   0.000000   0.000000   0.000000
   17  AS 1  S    0.000000   0.147449   0.000000   0.000000   0.000000
   18  AS 1  S    0.000000  -0.859397   0.000000   0.000000   0.000000
   19  AS 1  S    0.000000   2.556779   0.000000   0.000000   0.000000
   20  AS 1  S    0.000000  -2.021353   0.000000   0.000000   0.000000
   21  AS 1  X    0.000000   0.000000   0.000000   0.000000   0.000000
   22  AS 1  Y   -0.000006   0.000000   0.000000   0.000000   0.000000
   23  AS 1  Z    0.000000   0.000000   0.000000   0.000000   0.000000
   24  AS 1  X    0.000000   0.000000   0.000000   0.000000   0.000000
   25  AS 1  Y   -0.000038   0.000000   0.000000   0.000000   0.000000
   26  AS 1  Z    0.000000   0.000000   0.000000   0.000000   0.000000
   27  AS 1  X    0.000000   0.000000   0.000000   0.000000   0.000000
   28  AS 1  Y   -0.000174   0.000000   0.000000   0.000000   0.000000
   29  AS 1  Z    0.000000   0.000000   0.000000   0.000000   0.000000
   30  AS 1  X    0.000000   0.000000   0.000000   0.000000   0.000000
   31  AS 1  Y   -0.000882   0.000000   0.000000   0.000000   0.000000
   32  AS 1  Z    0.000000   0.000000   0.000000   0.000000   0.000000
   33  AS 1  X    0.000000   0.000000   0.000000   0.000000   0.000000
   34  AS 1  Y   -0.002782   0.000000   0.000000   0.000000   0.000000
   35  AS 1  Z    0.000000   0.000000   0.000000   0.000000   0.000000
   36  AS 1  X    0.000000   0.000000   0.000000   0.000000   0.000000
   37  AS 1  Y   -0.009829   0.000000   0.000000   0.000000   0.000000
   38  AS 1  Z    0.000000   0.000000   0.000000   0.000000   0.000000
   39  AS 1  X    0.000000   0.000000   0.000000   0.000000   0.000000
   40  AS 1  Y   -0.016687   0.000000   0.000000   0.000000   0.000000
   41  AS 1  Z    0.000000   0.000000   0.000000   0.000000   0.000000
   42  AS 1  X    0.000000   0.000000   0.000000   0.000000   0.000000
   43  AS 1  Y   -0.033427   0.000000   0.000000   0.000000   0.000000
   44  AS 1  Z    0.000000   0.000000   0.000000   0.000000   0.000000
   45  AS 1  X    0.000000   0.000000   0.000000   0.000000   0.000000
   46  AS 1  Y    0.011312   0.000000   0.000000   0.000000   0.000000
   47  AS 1  Z    0.000000   0.000000   0.000000   0.000000   0.000000
   48  AS 1  X    0.000000   0.000000   0.000000   0.000000   0.000000
   49  AS 1  Y    0.023842   0.000000   0.000000   0.000000   0.000000
   50  AS 1  Z    0.000000   0.000000   0.000000   0.000000   0.000000
   51  AS 1  X    0.000000   0.000000   0.000000   0.000000   0.000000
   52  AS 1  Y    0.162659   0.000000   0.000000   0.000000   0.000000
   53  AS 1  Z    0.000000   0.000000   0.000000   0.000000   0.000000
   54  AS 1  X    0.000000   0.000000   0.000000   0.000000   0.000000
   55  AS 1  Y   -0.055941   0.000000   0.000000   0.000000   0.000000
   56  AS 1  Z    0.000000   0.000000   0.000000   0.000000   0.000000
   57  AS 1  X    0.000000   0.000000   0.000000   0.000000   0.000000
   58  AS 1  Y    0.067726   0.000000   0.000000   0.000000   0.000000
   59  AS 1  Z    0.000000   0.000000   0.000000   0.000000   0.000000
   60  AS 1  X    0.000000   0.000000   0.000000   0.000000   0.000000
   61  AS 1  Y   -1.321789   0.000000   0.000000   0.000000   0.000000
   62  AS 1  Z    0.000000   0.000000   0.000000   0.000000   0.000000
   63  AS 1  X    0.000000   0.000000   0.000000   0.000000   0.000000
   64  AS 1  Y    1.533407   0.000000   0.000000   0.000000   0.000000
   65  AS 1  Z    0.000000   0.000000   0.000000   0.000000   0.000000
   66  AS 1 XX    0.000000   0.000000   0.000067   0.000051   0.000000
   67  AS 1 YY    0.000000   0.000000   0.000011  -0.000083   0.000000
   68  AS 1 ZZ    0.000000   0.000000  -0.000078   0.000032   0.000000
   69  AS 1 XY    0.000000   0.000000   0.000000   0.000000   0.000000
   70  AS 1 XZ    0.000000   0.000000   0.000000   0.000000  -0.000084
   71  AS 1 YZ    0.000000   0.000000   0.000000   0.000000   0.000000
   72  AS 1 XX    0.000000   0.000000   0.001495   0.001150   0.000000
   73  AS 1 YY    0.000000   0.000000   0.000248  -0.001870   0.000000
   74  AS 1 ZZ    0.000000   0.000000  -0.001743   0.000720   0.000000
   75  AS 1 XY    0.000000   0.000000   0.000000   0.000000   0.000000
   76  AS 1 XZ    0.000000   0.000000   0.000000   0.000000  -0.001886
   77  AS 1 YZ    0.000000   0.000000   0.000000   0.000000   0.000000
   78  AS 1 XX    0.000000   0.000000   0.003749   0.002882   0.000000
   79  AS 1 YY    0.000000   0.000000   0.000622  -0.004688   0.000000
   80  AS 1 ZZ    0.000000   0.000000  -0.004371   0.001805   0.000000
   81  AS 1 XY    0.000000   0.000000   0.000000   0.000000   0.000000
   82  AS 1 XZ    0.000000   0.000000   0.000000   0.000000  -0.004729
   83  AS 1 YZ    0.000000   0.000000   0.000000   0.000000   0.000000
   84  AS 1 XX    0.000000   0.000000   0.027423   0.021085   0.000000
   85  AS 1 YY    0.000000   0.000000   0.004549  -0.034291   0.000000
   86  AS 1 ZZ    0.000000   0.000000  -0.031971   0.013206   0.000000
   87  AS 1 XY    0.000000   0.000000   0.000000   0.000000   0.000000
   88  AS 1 XZ    0.000000   0.000000   0.000000   0.000000  -0.034591
   89  AS 1 YZ    0.000000   0.000000   0.000000   0.000000   0.000000
   90  AS 1 XX    0.000000   0.000000   0.034888   0.026825   0.000000
   91  AS 1 YY    0.000000   0.000000   0.005787  -0.043626   0.000000
   92  AS 1 ZZ    0.000000   0.000000  -0.040675   0.016801   0.000000
   93  AS 1 XY    0.000000   0.000000   0.000000   0.000000   0.000000
   94  AS 1 XZ    0.000000   0.000000   0.000000   0.000000  -0.044008
   95  AS 1 YZ    0.000000   0.000000   0.000000   0.000000   0.000000
   96  AS 1 XX    0.000000   0.000000   0.150296   0.115561   0.000000
   97  AS 1 YY    0.000000   0.000000   0.024931  -0.187941   0.000000
   98  AS 1 ZZ    0.000000   0.000000  -0.175227   0.072380   0.000000
   99  AS 1 XY    0.000000   0.000000   0.000000   0.000000   0.000000
  100  AS 1 XZ    0.000000   0.000000   0.000000   0.000000  -0.189587
  101  AS 1 YZ    0.000000   0.000000   0.000000   0.000000   0.000000
  102  AS 1 XX    0.000000   0.000000   0.002315   0.001780   0.000000
  103  AS 1 YY    0.000000   0.000000   0.000384  -0.002895   0.000000
  104  AS 1 ZZ    0.000000   0.000000  -0.002699   0.001115   0.000000
  105  AS 1 XY    0.000000   0.000000   0.000000   0.000000   0.000000
  106  AS 1 XZ    0.000000   0.000000   0.000000   0.000000  -0.002920
  107  AS 1 YZ    0.000000   0.000000   0.000000   0.000000   0.000000
  108  AS 1 XX    0.000000   0.000000   0.331719   0.255055   0.000000
  109  AS 1 YY    0.000000   0.000000   0.055025  -0.414804   0.000000
  110  AS 1 ZZ    0.000000   0.000000  -0.386744   0.159749   0.000000
  111  AS 1 XY    0.000000   0.000000   0.000000   0.000000   0.000000
  112  AS 1 XZ    0.000000   0.000000   0.000000   0.000000  -0.418438
  113  AS 1 YZ    0.000000   0.000000   0.000000   0.000000   0.000000
  114  AS 1 XX    0.000000   0.000000  -0.948061  -0.728955   0.000000
  115  AS 1 YY    0.000000   0.000000  -0.157263   1.185522   0.000000
  116  AS 1 ZZ    0.000000   0.000000   1.105324  -0.456567   0.000000
  117  AS 1 XY    0.000000   0.000000   0.000000   0.000000   0.000000
  118  AS 1 XZ    0.000000   0.000000   0.000000   0.000000   1.195908
  119  AS 1 YZ    0.000000   0.000000   0.000000   0.000000   0.000000

                     26         27         28         29         30
                    1.0110     1.0110     1.2321     1.2321     1.2321
                     B3G        B1G        B1U        B3U        B2U 
    1  AS 1  S    0.000000   0.000000   0.000000   0.000000   0.000000
    2  AS 1  S    0.000000   0.000000   0.000000   0.000000   0.000000
    3  AS 1  S    0.000000   0.000000   0.000000   0.000000   0.000000
    4  AS 1  S    0.000000   0.000000   0.000000   0.000000   0.000000
    5  AS 1  S    0.000000   0.000000   0.000000   0.000000   0.000000
    6  AS 1  S    0.000000   0.000000   0.000000   0.000000   0.000000
    7  AS 1  S    0.000000   0.000000   0.000000   0.000000   0.000000
    8  AS 1  S    0.000000   0.000000   0.000000   0.000000   0.000000
    9  AS 1  S    0.000000   0.000000   0.000000   0.000000   0.000000
   10  AS 1  S    0.000000   0.000000   0.000000   0.000000   0.000000
   11  AS 1  S    0.000000   0.000000   0.000000   0.000000   0.000000
   12  AS 1  S    0.000000   0.000000   0.000000   0.000000   0.000000
   13  AS 1  S    0.000000   0.000000   0.000000   0.000000   0.000000
   14  AS 1  S    0.000000   0.000000   0.000000   0.000000   0.000000
   15  AS 1  S    0.000000   0.000000   0.000000   0.000000   0.000000
   16  AS 1  S    0.000000   0.000000   0.000000   0.000000   0.000000
   17  AS 1  S    0.000000   0.000000   0.000000   0.000000   0.000000
   18  AS 1  S    0.000000   0.000000   0.000000   0.000000   0.000000
   19  AS 1  S    0.000000   0.000000   0.000000   0.000000   0.000000
   20  AS 1  S    0.000000   0.000000   0.000000   0.000000   0.000000
   21  AS 1  X    0.000000   0.000000   0.000000  -0.000015   0.000000
   22  AS 1  Y    0.000000   0.000000   0.000000   0.000000  -0.000015
   23  AS 1  Z    0.000000   0.000000  -0.000015   0.000000   0.000000
   24  AS 1  X    0.000000   0.000000   0.000000  -0.000076   0.000000
   25  AS 1  Y    0.000000   0.000000   0.000000   0.000000  -0.000076
   26  AS 1  Z    0.000000   0.000000  -0.000076   0.000000   0.000000
   27  AS 1  X    0.000000   0.000000   0.000000  -0.000468   0.000000
   28  AS 1  Y    0.000000   0.000000   0.000000   0.000000  -0.000468
   29  AS 1  Z    0.000000   0.000000  -0.000468   0.000000   0.000000
   30  AS 1  X    0.000000   0.000000   0.000000  -0.001611   0.000000
   31  AS 1  Y    0.000000   0.000000   0.000000   0.000000  -0.001611
   32  AS 1  Z    0.000000   0.000000  -0.001611   0.000000   0.000000
   33  AS 1  X    0.000000   0.000000   0.000000  -0.007861   0.000000
   34  AS 1  Y    0.000000   0.000000   0.000000   0.000000  -0.007861
   35  AS 1  Z    0.000000   0.000000  -0.007861   0.000000   0.000000
   36  AS 1  X    0.000000   0.000000   0.000000  -0.016741   0.000000
   37  AS 1  Y    0.000000   0.000000   0.000000   0.000000  -0.016741
   38  AS 1  Z    0.000000   0.000000  -0.016741   0.000000   0.000000
   39  AS 1  X    0.000000   0.000000   0.000000  -0.054507   0.000000
   40  AS 1  Y    0.000000   0.000000   0.000000   0.000000  -0.054507
   41  AS 1  Z    0.000000   0.000000  -0.054507   0.000000   0.000000
   42  AS 1  X    0.000000   0.000000   0.000000  -0.031271   0.000000
   43  AS 1  Y    0.000000   0.000000   0.000000   0.000000  -0.031271
   44  AS 1  Z    0.000000   0.000000  -0.031271   0.000000   0.000000
   45  AS 1  X    0.000000   0.000000   0.000000  -0.074704   0.000000
   46  AS 1  Y    0.000000   0.000000   0.000000   0.000000  -0.074704
   47  AS 1  Z    0.000000   0.000000  -0.074704   0.000000   0.000000
   48  AS 1  X    0.000000   0.000000   0.000000   0.269863   0.000000
   49  AS 1  Y    0.000000   0.000000   0.000000   0.000000   0.269863
   50  AS 1  Z    0.000000   0.000000   0.269863   0.000000   0.000000
   51  AS 1  X    0.000000   0.000000   0.000000  -0.045664   0.000000
   52  AS 1  Y    0.000000   0.000000   0.000000   0.000000  -0.045664
   53  AS 1  Z    0.000000   0.000000  -0.045664   0.000000   0.000000
   54  AS 1  X    0.000000   0.000000   0.000000   0.663050   0.000000
   55  AS 1  Y    0.000000   0.000000   0.000000   0.000000   0.663050
   56  AS 1  Z    0.000000   0.000000   0.663050   0.000000   0.000000
   57  AS 1  X    0.000000   0.000000   0.000000  -2.462671   0.000000
   58  AS 1  Y    0.000000   0.000000   0.000000   0.000000  -2.462671
   59  AS 1  Z    0.000000   0.000000  -2.462671   0.000000   0.000000
   60  AS 1  X    0.000000   0.000000   0.000000   2.520435   0.000000
   61  AS 1  Y    0.000000   0.000000   0.000000   0.000000   2.520435
   62  AS 1  Z    0.000000   0.000000   2.520435   0.000000   0.000000
   63  AS 1  X    0.000000   0.000000   0.000000  -0.947294   0.000000
   64  AS 1  Y    0.000000   0.000000   0.000000   0.000000  -0.947294
   65  AS 1  Z    0.000000   0.000000  -0.947294   0.000000   0.000000
   66  AS 1 XX    0.000000   0.000000   0.000000   0.000000   0.000000
   67  AS 1 YY    0.000000   0.000000   0.000000   0.000000   0.000000
   68  AS 1 ZZ    0.000000   0.000000   0.000000   0.000000   0.000000
   69  AS 1 XY    0.000000  -0.000084   0.000000   0.000000   0.000000
   70  AS 1 XZ    0.000000   0.000000   0.000000   0.000000   0.000000
   71  AS 1 YZ   -0.000084   0.000000   0.000000   0.000000   0.000000
   72  AS 1 XX    0.000000   0.000000   0.000000   0.000000   0.000000
   73  AS 1 YY    0.000000   0.000000   0.000000   0.000000   0.000000
[...]
    9  AS 1  S   -1.649794   0.835218  -0.389906  -0.158370   0.049117
   10  AS 1  S    1.261169  -0.645043   0.302675   0.123162  -0.038219
   11  AS 1  S   -0.931624   0.479504  -0.225600  -0.091880   0.028519
   12  AS 1  S    0.632918  -0.326913   0.154019   0.062755  -0.019481
   13  AS 1  S   -0.466729   0.241572  -0.113899  -0.046418   0.014411
   14  AS 1  S    0.369402  -0.191364   0.090254   0.036785  -0.011421
   15  AS 1  S   -0.220923   0.114503  -0.054013  -0.022015   0.006835
   16  AS 1  S    0.125205  -0.064912   0.030623   0.012482  -0.003875
   17  AS 1  S   -0.078538   0.040723  -0.019213  -0.007831   0.002431
   18  AS 1  S    0.032835  -0.017027   0.008033   0.003274  -0.001017
   19  AS 1  S   -0.008417   0.004365  -0.002059  -0.000839   0.000261
   20  AS 1  S    0.002595  -0.001346   0.000635   0.000259  -0.000080
   21  AS 1  X    0.000000   0.000000   0.000000   0.000000   0.000000
   22  AS 1  Y    0.000000   0.000000   0.000000   0.000000   0.000000
   23  AS 1  Z    0.000000   0.000000   0.000000   0.000000   0.000000
   24  AS 1  X    0.000000   0.000000   0.000000   0.000000   0.000000
   25  AS 1  Y    0.000000   0.000000   0.000000   0.000000   0.000000
   26  AS 1  Z    0.000000   0.000000   0.000000   0.000000   0.000000
   27  AS 1  X    0.000000   0.000000   0.000000   0.000000   0.000000
   28  AS 1  Y    0.000000   0.000000   0.000000   0.000000   0.000000
   29  AS 1  Z    0.000000   0.000000   0.000000   0.000000   0.000000
   30  AS 1  X    0.000000   0.000000   0.000000   0.000000   0.000000
   31  AS 1  Y    0.000000   0.000000   0.000000   0.000000   0.000000
   32  AS 1  Z    0.000000   0.000000   0.000000   0.000000   0.000000
   33  AS 1  X    0.000000   0.000000   0.000000   0.000000   0.000000
   34  AS 1  Y    0.000000   0.000000   0.000000   0.000000   0.000000
   35  AS 1  Z    0.000000   0.000000   0.000000   0.000000   0.000000
   36  AS 1  X    0.000000   0.000000   0.000000   0.000000   0.000000
   37  AS 1  Y    0.000000   0.000000   0.000000   0.000000   0.000000
   38  AS 1  Z    0.000000   0.000000   0.000000   0.000000   0.000000
   39  AS 1  X    0.000000   0.000000   0.000000   0.000000   0.000000
   40  AS 1  Y    0.000000   0.000000   0.000000   0.000000   0.000000
   41  AS 1  Z    0.000000   0.000000   0.000000   0.000000   0.000000
   42  AS 1  X    0.000000   0.000000   0.000000   0.000000   0.000000
   43  AS 1  Y    0.000000   0.000000   0.000000   0.000000   0.000000
   44  AS 1  Z    0.000000   0.000000   0.000000   0.000000   0.000000
   45  AS 1  X    0.000000   0.000000   0.000000   0.000000   0.000000
   46  AS 1  Y    0.000000   0.000000   0.000000   0.000000   0.000000
   47  AS 1  Z    0.000000   0.000000   0.000000   0.000000   0.000000
   48  AS 1  X    0.000000   0.000000   0.000000   0.000000   0.000000
   49  AS 1  Y    0.000000   0.000000   0.000000   0.000000   0.000000
   50  AS 1  Z    0.000000   0.000000   0.000000   0.000000   0.000000
   51  AS 1  X    0.000000   0.000000   0.000000   0.000000   0.000000
   52  AS 1  Y    0.000000   0.000000   0.000000   0.000000   0.000000
   53  AS 1  Z    0.000000   0.000000   0.000000   0.000000   0.000000
   54  AS 1  X    0.000000   0.000000   0.000000   0.000000   0.000000
   55  AS 1  Y    0.000000   0.000000   0.000000   0.000000   0.000000
   56  AS 1  Z    0.000000   0.000000   0.000000   0.000000   0.000000
   57  AS 1  X    0.000000   0.000000   0.000000   0.000000   0.000000
   58  AS 1  Y    0.000000   0.000000   0.000000   0.000000   0.000000
   59  AS 1  Z    0.000000   0.000000   0.000000   0.000000   0.000000
   60  AS 1  X    0.000000   0.000000   0.000000   0.000000   0.000000
   61  AS 1  Y    0.000000   0.000000   0.000000   0.000000   0.000000
   62  AS 1  Z    0.000000   0.000000   0.000000   0.000000   0.000000
   63  AS 1  X    0.000000   0.000000   0.000000   0.000000   0.000000
   64  AS 1  Y    0.000000   0.000000   0.000000   0.000000   0.000000
   65  AS 1  Z    0.000000   0.000000   0.000000   0.000000   0.000000
   66  AS 1 XX    0.000000   0.000000   0.000000   0.000000   0.000000
   67  AS 1 YY    0.000000   0.000000   0.000000   0.000000   0.000000
   68  AS 1 ZZ    0.000000   0.000000   0.000000   0.000000   0.000000
   69  AS 1 XY    0.000000   0.000000   0.000000   0.000000   0.000000
   70  AS 1 XZ    0.000000   0.000000   0.000000   0.000000   0.000000
   71  AS 1 YZ    0.000000   0.000000   0.000000   0.000000   0.000000
   72  AS 1 XX    0.000000   0.000000   0.000000   0.000000   0.000000
   73  AS 1 YY    0.000000   0.000000   0.000000   0.000000   0.000000
   74  AS 1 ZZ    0.000000   0.000000   0.000000   0.000000   0.000000
   75  AS 1 XY    0.000000   0.000000   0.000000   0.000000   0.000000
   76  AS 1 XZ    0.000000   0.000000   0.000000   0.000000   0.000000
   77  AS 1 YZ    0.000000   0.000000   0.000000   0.000000   0.000000
   78  AS 1 XX    0.000000   0.000000   0.000000   0.000000   0.000000
   79  AS 1 YY    0.000000   0.000000   0.000000   0.000000   0.000000
   80  AS 1 ZZ    0.000000   0.000000   0.000000   0.000000   0.000000
   81  AS 1 XY    0.000000   0.000000   0.000000   0.000000   0.000000
   82  AS 1 XZ    0.000000   0.000000   0.000000   0.000000   0.000000
   83  AS 1 YZ    0.000000   0.000000   0.000000   0.000000   0.000000
   84  AS 1 XX    0.000000   0.000000   0.000000   0.000000   0.000000
   85  AS 1 YY    0.000000   0.000000   0.000000   0.000000   0.000000
   86  AS 1 ZZ    0.000000   0.000000   0.000000   0.000000   0.000000
   87  AS 1 XY    0.000000   0.000000   0.000000   0.000000   0.000000
   88  AS 1 XZ    0.000000   0.000000   0.000000   0.000000   0.000000
   89  AS 1 YZ    0.000000   0.000000   0.000000   0.000000   0.000000
   90  AS 1 XX    0.000000   0.000000   0.000000   0.000000   0.000000
   91  AS 1 YY    0.000000   0.000000   0.000000   0.000000   0.000000
   92  AS 1 ZZ    0.000000   0.000000   0.000000   0.000000   0.000000
   93  AS 1 XY    0.000000   0.000000   0.000000   0.000000   0.000000
   94  AS 1 XZ    0.000000   0.000000   0.000000   0.000000   0.000000
   95  AS 1 YZ    0.000000   0.000000   0.000000   0.000000   0.000000
   96  AS 1 XX    0.000000   0.000000   0.000000   0.000000   0.000000
   97  AS 1 YY    0.000000   0.000000   0.000000   0.000000   0.000000
   98  AS 1 ZZ    0.000000   0.000000   0.000000   0.000000   0.000000
   99  AS 1 XY    0.000000   0.000000   0.000000   0.000000   0.000000
  100  AS 1 XZ    0.000000   0.000000   0.000000   0.000000   0.000000
  101  AS 1 YZ    0.000000   0.000000   0.000000   0.000000   0.000000
  102  AS 1 XX    0.000000   0.000000   0.000000   0.000000   0.000000
  103  AS 1 YY    0.000000   0.000000   0.000000   0.000000   0.000000
  104  AS 1 ZZ    0.000000   0.000000   0.000000   0.000000   0.000000
  105  AS 1 XY    0.000000   0.000000   0.000000   0.000000   0.000000
  106  AS 1 XZ    0.000000   0.000000   0.000000   0.000000   0.000000
  107  AS 1 YZ    0.000000   0.000000   0.000000   0.000000   0.000000
  108  AS 1 XX    0.000000   0.000000   0.000000   0.000000   0.000000
  109  AS 1 YY    0.000000   0.000000   0.000000   0.000000   0.000000
  110  AS 1 ZZ    0.000000   0.000000   0.000000   0.000000   0.000000
  111  AS 1 XY    0.000000   0.000000   0.000000   0.000000   0.000000
  112  AS 1 XZ    0.000000   0.000000   0.000000   0.000000   0.000000
  113  AS 1 YZ    0.000000   0.000000   0.000000   0.000000   0.000000
  114  AS 1 XX    0.000000   0.000000   0.000000   0.000000   0.000000
  115  AS 1 YY    0.000000   0.000000   0.000000   0.000000   0.000000
  116  AS 1 ZZ    0.000000   0.000000   0.000000   0.000000   0.000000
  117  AS 1 XY    0.000000   0.000000   0.000000   0.000000   0.000000
  118  AS 1 XZ    0.000000   0.000000   0.000000   0.000000   0.000000
  119  AS 1 YZ    0.000000   0.000000   0.000000   0.000000   0.000000
 ...... END OF ROHF CALCULATION ......
 STEP CPU TIME =     0.87 TOTAL CPU TIME =        2.1 (    0.0 MIN)
 TOTAL WALL CLOCK TIME=        2.4 SECONDS, CPU UTILIZATION IS  89.03%

     ----------------------------------------------------------------
     PROPERTY VALUES FOR THE ROHF  SELF-CONSISTENT FIELD WAVEFUNCTION
     ----------------------------------------------------------------

          -----------------
          ENERGY COMPONENTS
          -----------------

         WAVEFUNCTION NORMALIZATION =       1.0000000000

                ONE ELECTRON ENERGY =   -3146.4871118839
                TWO ELECTRON ENERGY =     887.3916000576
           NUCLEAR REPULSION ENERGY =       0.0000000000
                                      ------------------
                       TOTAL ENERGY =   -2259.0955118263

 ELECTRON-ELECTRON POTENTIAL ENERGY =     887.3916000576
  NUCLEUS-ELECTRON POTENTIAL ENERGY =   -5461.9640611807
   NUCLEUS-NUCLEUS POTENTIAL ENERGY =       0.0000000000
                                      ------------------
             TOTAL POTENTIAL ENERGY =   -4574.5724611230
               TOTAL KINETIC ENERGY =    2315.4769492967
                 VIRIAL RATIO (V/T) =       1.9756501841

          ---------------------------------------
          MULLIKEN AND LOWDIN POPULATION ANALYSES
          ---------------------------------------

     ATOMIC MULLIKEN POPULATION IN EACH MOLECULAR ORBITAL

                      1          2          3          4          5

                  2.000000   2.000000   2.000000   2.000000   2.000000

    1             2.000000   2.000000   2.000000   2.000000   2.000000

                      6          7          8          9         10

                  2.000000   2.000000   2.000000   2.000000   2.000000

    1             2.000000   2.000000   2.000000   2.000000   2.000000

                     11         12         13         14         15

                  2.000000   2.000000   2.000000   2.000000   2.000000

    1             2.000000   2.000000   2.000000   2.000000   2.000000

                     16         17         18

                  1.000000   1.000000   1.000000

    1             1.000000   1.000000   1.000000

          MULLIKEN SPHERICAL HARMONIC POPULATIONS
       ATOM           S       P       D      F      G      H      I    TOTAL
    1 ARSENIC       4.00    9.00    5.00   0.00   0.00   0.00   0.00   18.00

          MULLIKEN SPHERICAL HARMONIC POPULATIONS
       ATOM           S       P       D      F      G      H      I    TOTAL
    1 ARSENIC       4.00    6.00    5.00   0.00   0.00   0.00   0.00   15.00

     ATOMIC SPIN POPULATION (ALPHA MINUS BETA)
       ATOM         MULL.POP.                    LOW.POP.
    1 ARSENIC       3.000000                     3.000000

               ----- POPULATIONS IN EACH AO -----
                             MULLIKEN      LOWDIN
              1  AS 1  S      0.00000     0.00000
              2  AS 1  S      0.00000     0.00000
              3  AS 1  S      0.00001     0.00002
              4  AS 1  S      0.00011     0.00016
              5  AS 1  S      0.00066     0.00107
              6  AS 1  S      0.00348     0.00605
              7  AS 1  S      0.01630     0.02948
              8  AS 1  S      0.06664     0.12142
              9  AS 1  S      0.22155     0.28892
             10  AS 1  S      0.52826     0.36536
             11  AS 1  S      0.72721     0.34813
             12  AS 1  S      0.35124     0.22142
             13  AS 1  S      0.30454     0.21714
             14  AS 1  S      1.13717     0.28996
             15  AS 1  S      0.57970     0.23894
             16  AS 1  S      0.63948     0.23092
             17  AS 1  S      1.14894     0.29122
             18  AS 1  S      0.23906     0.21881
             19  AS 1  S      1.13960     0.37673
             20  AS 1  S      0.89603     0.73213
             21  AS 1  X      0.00000     0.00000
             22  AS 1  Y      0.00000     0.00000
             23  AS 1  Z      0.00000     0.00000
             24  AS 1  X      0.00003     0.00005
             25  AS 1  Y      0.00003     0.00005
             26  AS 1  Z      0.00003     0.00005
             27  AS 1  X      0.00060     0.00104
             28  AS 1  Y      0.00060     0.00104
             29  AS 1  Z      0.00060     0.00104
             30  AS 1  X      0.00718     0.01175
             31  AS 1  Y      0.00718     0.01175
             32  AS 1  Z      0.00718     0.01175
             33  AS 1  X      0.05289     0.07624
             34  AS 1  Y      0.05289     0.07624
             35  AS 1  Z      0.05289     0.07624
             36  AS 1  X      0.23939     0.28828
             37  AS 1  Y      0.23939     0.28828
             38  AS 1  Z      0.23939     0.28828
             39  AS 1  X      0.60960     0.60840
             40  AS 1  Y      0.60960     0.60840
             41  AS 1  Z      0.60960     0.60840
             42  AS 1  X      0.74692     0.65830
             43  AS 1  Y      0.74692     0.65830
             44  AS 1  Z      0.74692     0.65830
             45  AS 1  X      0.36055     0.40497
             46  AS 1  Y      0.36055     0.40497
             47  AS 1  Z      0.36055     0.40497
             48  AS 1  X      0.51676     0.52900
             49  AS 1  Y      0.51676     0.52900
             50  AS 1  Z      0.51676     0.52900
             51  AS 1  X      0.97758     0.83874
             52  AS 1  Y      0.97758     0.83874
             53  AS 1  Z      0.97758     0.83874
             54  AS 1  X      0.46978     0.53210
             55  AS 1  Y      0.46978     0.53210
             56  AS 1  Z      0.46978     0.53210
             57  AS 1  X      0.23366     0.29114
             58  AS 1  Y      0.23366     0.29114
             59  AS 1  Z      0.23366     0.29114
             60  AS 1  X      0.54373     0.47727
             61  AS 1  Y      0.54373     0.47727
             62  AS 1  Z      0.54373     0.47727
             63  AS 1  X      0.24133     0.28272
             64  AS 1  Y      0.24133     0.28272
             65  AS 1  Z      0.24133     0.28272
             66  AS 1 XX      0.00001     0.14513
             67  AS 1 YY      0.00001     0.14513
             68  AS 1 ZZ      0.00001     0.14513
             69  AS 1 XY      0.00001     0.00001
             70  AS 1 XZ      0.00001     0.00001
             71  AS 1 YZ      0.00000     0.00001
             72  AS 1 XX      0.00039     0.06842
             73  AS 1 YY      0.00039     0.06842
             74  AS 1 ZZ      0.00039     0.06842
             75  AS 1 XY      0.00039     0.00062
             76  AS 1 XZ      0.00039     0.00062
             77  AS 1 YZ      0.00000     0.00062
             78  AS 1 XX      0.00608     0.14749
             79  AS 1 YY      0.00608     0.14749
             80  AS 1 ZZ      0.00608     0.14749
             81  AS 1 XY      0.00608     0.00852
             82  AS 1 XZ      0.00608     0.00852
             83  AS 1 YZ      0.00000     0.00852
             84  AS 1 XX      0.04599     0.22850
             85  AS 1 YY      0.04599     0.22850
             86  AS 1 ZZ      0.04599     0.22850
             87  AS 1 XY      0.04599     0.05731
             88  AS 1 XZ      0.04599     0.05731
             89  AS 1 YZ      0.00000     0.05731
             90  AS 1 XX      0.20642     0.24389
             91  AS 1 YY      0.20642     0.24389
             92  AS 1 ZZ      0.20642     0.24389
             93  AS 1 XY      0.20642     0.22183
             94  AS 1 XZ      0.20642     0.22183
             95  AS 1 YZ      0.00000     0.22183
             96  AS 1 XX      0.50901     0.51501
             97  AS 1 YY      0.50901     0.51501
             98  AS 1 ZZ      0.50901     0.51501
             99  AS 1 XY      0.50901     0.50330
            100  AS 1 XZ      0.50901     0.50330
            101  AS 1 YZ      0.00000     0.50330
            102  AS 1 XX      0.68812     0.62944
            103  AS 1 YY      0.68812     0.62944
            104  AS 1 ZZ      0.68812     0.62944
            105  AS 1 XY      0.68812     0.65871
            106  AS 1 XZ      0.68812     0.65871
            107  AS 1 YZ      0.00000     0.65871
            108  AS 1 XX      0.45705     0.37230
            109  AS 1 YY      0.45705     0.37230
            110  AS 1 ZZ      0.45705     0.37230
            111  AS 1 XY      0.45705     0.44045
            112  AS 1 XZ      0.45705     0.44045
            113  AS 1 YZ      0.00000     0.44045
            114  AS 1 XX      0.08693     0.32387
            115  AS 1 YY      0.08693     0.32387
            116  AS 1 ZZ      0.08693     0.32387
            117  AS 1 XY      0.08693     0.10925
            118  AS 1 XZ      0.08693     0.10925
            119  AS 1 YZ      0.00000     0.10925

          ----- MULLIKEN ATOMIC OVERLAP POPULATIONS -----
          (OFF-DIAGONAL ELEMENTS NEED TO BE MULTIPLIED BY 2)

             1

    1   33.0000000

          TOTAL MULLIKEN AND LOWDIN ATOMIC POPULATIONS
       ATOM         MULL.POP.    CHARGE          LOW.POP.     CHARGE
    1 ARSENIC      33.000000    0.000000        33.000000    0.000000

          MULLIKEN SPHERICAL HARMONIC POPULATIONS
       ATOM           S       P       D      F      G      H      I    TOTAL
    1 ARSENIC       8.00   15.00   10.00   0.00   0.00   0.00   0.00   33.00

          --------------------
          RADIAL WAVEFUNCTIONS
          --------------------
 THERE ARE   2 SHELLS TO BE COMPUTED
 SHELL   1 CONTAINS ATOMIC ORBITALS  15
 SHELL   2 CONTAINS ATOMIC ORBITALS  16  17  18
 RMAX=  10.000 NTICKS= 1001 (SO, RADIAL INCREMENT= 0.010 BOHR)

 SHELL      <R**0>          <R>       <R**2>
         NORMALIZATION      BOHR     BOHR**2
    1     0.99999753      1.9970      4.5952
    2     0.99999811      2.5043      7.3250

          -------------------------------
          BOND ORDER AND VALENCE ANALYSIS     BOND ORDER THRESHOLD=0.050
          -------------------------------

                   BOND                       BOND                       BOND
  ATOM PAIR DIST  ORDER      ATOM PAIR DIST  ORDER      ATOM PAIR DIST  ORDER

                       TOTAL       BONDED        FREE
      ATOM            VALENCE     VALENCE     VALENCE
    1 ARSENIC           3.000       0.000       3.000

          -----------------------------------------
          ATOMIC SPIN DENSITY AT THE NUCLEUS (A.U.)
          -----------------------------------------
                            SPIN DENS    ALPHA DENS     BETA DENS
    1  ARSENIC     33.0     0.0000000   39185.60796   39185.60796

          ---------------------
          ELECTROSTATIC MOMENTS
          ---------------------

 POINT   1           X           Y           Z (BOHR)    CHARGE
                 0.000000    0.000000    0.000000        0.00 (A.U.)
         DX          DY          DZ         /D/  (DEBYE)
     0.000000    0.000000    0.000000    0.000000
 ...... END OF PROPERTY EVALUATION ......
 STEP CPU TIME =     0.30 TOTAL CPU TIME =        2.4 (    0.0 MIN)
 TOTAL WALL CLOCK TIME=        2.7 SECONDS, CPU UTILIZATION IS  89.93%
                580000  WORDS OF DYNAMIC MEMORY USED
 EXECUTION OF GAMESS TERMINATED NORMALLY Tue Sep 13 13:56:44 2016
 DDI: 263624 bytes (0.3 MB / 0 MWords) used by master data server.

 ----------------------------------------
 CPU timing information for all processes
 ========================================
 0: 2.172 + 0.292 = 2.464
 1: 4.712 + 0.04 = 4.716
 ----------------------------------------
----- accounting info -----
Files used on the master node g4noden2 were:
-rw-r--r-- 1 g4rosendo g4   215341 sep 13 13:56 /scratch/g4rosendo/exam35.dat
-rw-r--r-- 1 g4rosendo g4     3083 sep 13 13:56 /scratch/g4rosendo/exam35.F05
-rw-r--r-- 1 g4rosendo g4 39063472 sep 13 13:56 /scratch/g4rosendo/exam35.F08
-rw-r--r-- 1 g4rosendo g4  5758720 sep 13 13:56 /scratch/g4rosendo/exam35.F10
-rw-r--r-- 1 g4rosendo g4        0 sep 13 13:56 /scratch/g4rosendo/exam35.nodes.mpd
mar sep 13 13:56:46 CEST 2016
7.204u 0.480s 0:07.94 96.7%	0+0k 57632+88960io 121pf+0w
