----- GAMESS execution script 'rungms' -----
This job is running on host g4nodes3
under operating system Linux at Wed Sep 28 11:58:29 CEST 2016
SGE has assigned the following compute nodes to this run:
Available scratch disk space (Kbyte units) at beginning of the job is
Filesystem                1K-blocks    Used Available Use% Mounted on
/dev/mapper/vgsys-scratch 569590032 6715400 562874632   2% /scratch
GAMESS temporary binary files will be written to /scratch/934475.1.iqtc06.q
GAMESS supplementary output files will be written to /scratch/934475.1.iqtc06.q
Copying input file singletminimum_casscfsingoptcontdeloc90deg2sing.inp to your run's scratch directory...
MPI kickoff will run GAMESS on 8 cores in 0 nodes.
The binary to be executed is /aplic/gamess/gamess-2013r1_intel11.1_mkl11.1_ompi-1.4.2/gamess.00.x
MPI will run 8 compute processes and 8 data servers,
    placing  of each process type onto each node.
The scratch disk space on each node is /scratch/934475.1.iqtc06.q, with free space
Filesystem                1K-blocks    Used Available Use% Mounted on
/dev/mapper/vgsys-scratch 569590032 6716612 562873420   2% /scratch
          ******************************************************
          *         GAMESS VERSION =  1 MAY 2013 (R1)          *
          *             FROM IOWA STATE UNIVERSITY             *
          * M.W.SCHMIDT, K.K.BALDRIDGE, J.A.BOATZ, S.T.ELBERT, *
          *   M.S.GORDON, J.H.JENSEN, S.KOSEKI, N.MATSUNAGA,   *
          *          K.A.NGUYEN, S.J.SU, T.L.WINDUS,           *
          *       TOGETHER WITH M.DUPUIS, J.A.MONTGOMERY       *
          *         J.COMPUT.CHEM.  14, 1347-1363(1993)        *
          **************** 64 BIT INTEL VERSION ****************

  SINCE 1993, STUDENTS AND POSTDOCS WORKING AT IOWA STATE UNIVERSITY
  AND ALSO IN THEIR VARIOUS JOBS AFTER LEAVING ISU HAVE MADE IMPORTANT
  CONTRIBUTIONS TO THE CODE:
     IVANA ADAMOVIC, CHRISTINE AIKENS, YURI ALEXEEV, POOJA ARORA,
     ANDREY ASADCHEV, ROB BELL, PRADIPTA BANDYOPADHYAY, JONATHAN BENTZ,
     BRETT BODE, GALINA CHABAN, WEI CHEN, CHEOL HO CHOI, PAUL DAY,
     ALBERT DEFUSCO, TIM DUDLEY, DMITRI FEDOROV, GRAHAM FLETCHER,
     MARK FREITAG, KURT GLAESEMANN, DAN KEMP, GRANT MERRILL,
     NORIYUKI MINEZAWA, JONATHAN MULLIN, TAKESHI NAGATA,
     SEAN NEDD, HEATHER NETZLOFF, BOSILJKA NJEGIC, RYAN OLSON, MIKE PAK,
     JIM SHOEMAKER, LYUDMILA SLIPCHENKO, SAROM SOK, JIE SONG,
     TETSUYA TAKETSUGU, SIMON WEBB, SOOHAENG YOO, FEDERICO ZAHARIEV

  ADDITIONAL CODE HAS BEEN PROVIDED BY COLLABORATORS IN OTHER GROUPS:
     IOWA STATE UNIVERSITY:
          JOE IVANIC, LAIMUTIS BYTAUTAS, KLAUS RUEDENBERG
     UNIVERSITY OF TOKYO: KIMIHIKO HIRAO, TAKAHITO NAKAJIMA,
          TAKAO TSUNEDA, MUNEAKI KAMIYA, SUSUMU YANAGISAWA,
          KIYOSHI YAGI, MAHITO CHIBA, SEIKEN TOKURA, NAOAKI KAWAKAMI
     UNIVERSITY OF AARHUS: FRANK JENSEN
     UNIVERSITY OF IOWA: VISVALDAS KAIRYS, HUI LI
     NATIONAL INST. OF STANDARDS AND TECHNOLOGY: WALT STEVENS, DAVID GARMER
     UNIVERSITY OF PISA: BENEDETTA MENNUCCI, JACOPO TOMASI
     UNIVERSITY OF MEMPHIS: HENRY KURTZ, PRAKASHAN KORAMBATH
     UNIVERSITY OF ALBERTA: TOBY ZENG, MARIUSZ KLOBUKOWSKI
     UNIVERSITY OF NEW ENGLAND: MARK SPACKMAN
     MIE UNIVERSITY: HIROAKI UMEDA
     MICHIGAN STATE UNIVERSITY:
          KAROL KOWALSKI, MARTA WLOCH, JEFFREY GOUR, JESSE LUTZ,
          WEI LI, PIOTR PIECUCH
     UNIVERSITY OF SILESIA: MONIKA MUSIAL, STANISLAW KUCHARSKI
     FACULTES UNIVERSITAIRES NOTRE-DAME DE LA PAIX:
          OLIVIER QUINET, BENOIT CHAMPAGNE
     UNIVERSITY OF CALIFORNIA - SANTA BARBARA: BERNARD KIRTMAN
     INSTITUTE FOR MOLECULAR SCIENCE:
          KAZUYA ISHIMURA, MICHIO KATOUDA, AND SHIGERU NAGASE
     UNIVERSITY OF NOTRE DAME: DAN CHIPMAN
     KYUSHU UNIVERSITY:
          HARUYUKI NAKANO,
          FENG LONG GU, JACEK KORCHOWIEC, MARCIN MAKOWSKI, AND YURIKO AOKI,
          HIROTOSHI MORI AND EISAKU MIYOSHI
     PENNSYLVANIA STATE UNIVERSITY:
          TZVETELIN IORDANOV, CHET SWALINA, JONATHAN SKONE,
          SHARON HAMMES-SCHIFFER
     WASEDA UNIVERSITY:
          MASATO KOBAYASHI, TOMOKO AKAMA, TSUGUKI TOUMA,
          TAKESHI YOSHIKAWA, YASUHIRO IKABATA, HIROMI NAKAI
     NANJING UNIVERSITY: SHUHUA LI
     UNIVERSITY OF NEBRASKA:
          PEIFENG SU, DEJUN SI, NANDUN THELLAMUREGE, YALI WANG, HUI LI
     UNIVERSITY OF ZURICH:
          ROBERTO PEVERATI, KIM BALDRIDGE
     N. COPERNICUS UNIVERSITY AND JACKSON STATE UNIVERSITY:
          MARIA BARYSZ


 PARALLEL VERSION RUNNING ON     4 PROCESSORS IN     1 NODES.

 EXECUTION OF GAMESS BEGUN Wed Sep 28 11:58:33 2016

            ECHO OF THE FIRST FEW INPUT CARDS -
 INPUT CARD> $CONTRL SCFTYP=MCSCF NOSYM=0 ISPHER=1 MULT=1                                   
 INPUT CARD>         UNITS=ANGS COORD=UNIQUE RUNTYP=ENERGY MAXIT=100 MPLEVL=2 $END          
 INPUT CARD> $SYSTEM MEMORY=200000000 MEMDDI=400 $END                                       
 INPUT CARD> $BASIS  GBASIS=N31 NGAUSS=6 NDFUNC=1 $END                                      
 INPUT CARD> $GUESS  GUESS=MOREAD NORB=264 $END                                             
 INPUT CARD> $MCSCF CISTEP=GUGA MAXIT=100                                                   
 INPUT CARD> ACURCY=1.0D-5 FULLNR=.TRUE. $END                                               
 INPUT CARD> $GUGDIA NSTATE=5, ITERMX=100 $END                                              
 INPUT CARD> $GUGDM2 WSTATE(1)=1.0,1.0,1.0,1.0,1.0 $END                                     
 INPUT CARD> $DRT NMCC=59 NDOC=6 NVAL=6 FORS=.TRUE. $END                                    
 INPUT CARD> $MRMP MRPT=MCQDPT $END                                                         
 INPUT CARD> $MCQDPT NOSYM=1 NSTATE=5 MULT=1 ISTSYM=1 IFORB=1                               
 INPUT CARD>         NMOFZC=21 NMODOC=38 NMOACT=12 EDSHFT(1)=0.02,0.1                       
 INPUT CARD>         KSTATE(1)=1,1,1,1,1, WSTATE(1)=1.0,1.0,1.0,1.0,1.0 $END                
 INPUT CARD> $DATA                                                                          
 INPUT CARD> titulo                                                                         
 INPUT CARD> C1                                                                             
 INPUT CARD>C           6.0   0.7001858479   1.2619679330   0.4425996276                    
 INPUT CARD>C           6.0   0.0031237398   0.0512297151   0.6456173680                    
 INPUT CARD>C           6.0   0.6764747753  -1.2012642834   0.5428272804                    
 INPUT CARD>C           6.0   2.0321605199  -1.2095632850   0.1979274447                    
 INPUT CARD>C           6.0   2.6918748227  -0.0112177498  -0.0240167001                    
 INPUT CARD>C           6.0   2.0486546764   1.2183065831   0.1009531991                    
 INPUT CARD>N           7.0  -1.3490745558   0.0865306669   1.0439999856                    
 INPUT CARD>C           6.0  -2.2572975238   0.0214641257   0.1778876147                    
 INPUT CARD>N           7.0  -2.1599719446  -0.0899510693  -1.1860657907                    
 INPUT CARD>C           6.0  -3.3669261297  -0.1441188842  -1.8722156683                    
 INPUT CARD>C           6.0  -4.4317299273  -0.0748868851  -1.0935078947                    
 INPUT CARD>S          16.0  -3.9750061330   0.0661509436   0.6026163286                    
 INPUT CARD>C           6.0  -0.0565817610  -2.4933775234   0.8187711298                    
 INPUT CARD>N           7.0   4.0999610990  -0.0359941760  -0.3893672462                    
 INPUT CARD>O           8.0   4.6565891478   1.0198010978  -0.5724004286                    
 INPUT CARD>C           6.0  -0.0069849650   2.5869285181   0.6098609560                    
 INPUT CARD>O           8.0   4.6401533765  -1.1106547623  -0.4958208934                    
 INPUT CARD>H           1.0   2.5985974460   2.1230440826  -0.0606192330                    
 INPUT CARD>H           1.0   0.6944659142   3.4091906083   0.5333879506                    
 INPUT CARD>H           1.0  -0.4976347315   2.6402167742   1.5744678169                    
 INPUT CARD>H           1.0  -0.7713150184   2.7304050924  -0.1477474036                    
 INPUT CARD>H           1.0  -0.8036715176  -2.7012793125   0.0587361419                    
 INPUT CARD>H           1.0   0.6333081642  -3.3287552099   0.8399607592                    
 INPUT CARD>H           1.0  -0.5705039461  -2.4473251825   1.7714319796                    
 INPUT CARD>H           1.0  -1.2733847291  -0.1325434227  -1.6354863884                    
 INPUT CARD>H           1.0  -5.4569038619  -0.0970552619  -1.3945029469                    
 INPUT CARD>H           1.0  -3.3498541258  -0.2350029521  -2.9388891768                    
 INPUT CARD>H           1.0   2.5642141189  -2.1350132260   0.1098048835                    
 INPUT CARD>$END                                                                            
 INPUT CARD>--- OPTIMIZED MCSCF MO-S --- GENERATED AT Mon Sep 26 21:55:13 2016              
 INPUT CARD> Das coord. From Energy + Gradient UHF Natural Orbitals                         
 INPUT CARD>E(MCSCF)=    -1133.5532515313, E(NUC)=     1275.8016169344                      
 INPUT CARD> $VEC                                                                           
  200000000 WORDS OF MEMORY AVAILABLE

     BASIS OPTIONS
     -------------
     GBASIS=N31          IGAUSS=       6      POLAR=POPN31  
     NDFUNC=       1     NFFUNC=       0     DIFFSP=       F
     NPFUNC=       0      DIFFS=       F     BASNAM=        


     RUN TITLE
     ---------
  titulo                                                                         

 THE POINT GROUP OF THE MOLECULE IS C1      
 THE ORDER OF THE PRINCIPAL AXIS IS     0

 ATOM      ATOMIC                      COORDINATES (BOHR)
           CHARGE         X                   Y                   Z
 C           6.0     1.3231593930        2.3847735987        0.8363920184
 C           6.0     0.0059030123        0.0968101240        1.2200399184
 C           6.0     1.2783519629       -2.2700603345        1.0257948186
 C           6.0     3.8402265457       -2.2857431735        0.3740286359
 C           6.0     5.0869058082       -0.0211984733       -0.0453849823
 C           6.0     3.8713959819        2.3022656111        0.1907738839
 N           7.0    -2.5493812475        0.1635192500        1.9728739040
 C           6.0    -4.2656737927        0.0405613161        0.3361588484
 N           7.0    -4.0817551165       -0.1699828733       -2.2413393478
 C           6.0    -6.3625678060       -0.2723452008       -3.5379746030
 C           6.0    -8.3747552142       -0.1415156929       -2.0664302864
 S          16.0    -7.5116723909        0.1250071572        1.1387797368
 C           6.0    -0.1069240242       -4.7118003032        1.5472530820
 N           7.0     7.7478030374       -0.0680191298       -0.7357974039
 O           8.0     8.7996775267        1.9271446368       -1.0816799653
 C           6.0    -0.0131996699        4.8885860490        1.1524700975
 O           8.0     8.7686184226       -2.0988331677       -0.9369656275
 H           1.0     4.9106371253        4.0119715760       -0.1145537400
 H           1.0     1.3123502857        6.4424360896        1.0079570718
 H           1.0    -0.9403932845        4.9892862514        2.9753127504
 H           1.0    -1.4575740350        5.1597174601       -0.2792021082
 H           1.0    -1.5187189524       -5.1046777169        0.1109952138
 H           1.0     1.1967788961       -6.2904352269        1.5872956753
 H           1.0    -1.0780961330       -4.6247739978        3.3475210473
 H           1.0    -2.4063482149       -0.2504707504       -3.0906211307
 H           1.0   -10.3120530403       -0.1834078507       -2.6352284587
 H           1.0    -6.3303063966       -0.4440911858       -5.5536952524
 H           1.0     4.8456620586       -4.0345899773        0.2075011419

          INTERNUCLEAR DISTANCES (ANGS.)
          ------------------------------

                1 C          2 C          3 C          4 C          5 C     

   1 C       0.0000000    1.4117361 *  2.4653845 *  2.8182419 *  2.4094725 *
   2 C       1.4117361 *  0.0000000    1.4257309 *  2.4304353 *  2.7715865 *
   3 C       2.4653845 *  1.4257309 *  0.0000000    1.3988955 *  2.4081861 *
   4 C       2.8182419 *  2.4304353 *  1.3988955 *  0.0000000    1.3858262 *
   5 C       2.4094725 *  2.7715865 *  2.4081861 *  1.3858262 *  0.0000000  
   6 C       1.3917603 *  2.4172142 *  2.8164612 *  2.4298618 *  1.3932264 *
   7 N       2.4377866 *  1.4101046 *  2.4520277 *  3.7186622    4.1808476  
   8 C       3.2180165    2.3084977 *  3.1992602    4.4626540    4.9533969  
   9 N       3.5581932    2.8379532 *  3.5027872    4.5544422    4.9896868  
  10 C       4.8863944    4.2112801    4.8269120    5.8796939    6.3358165  
  11 C       5.5211744    4.7653320    5.4808826    6.6885855    7.2037219  
  12 S       4.8283541    3.9783903    4.8214304    6.1544513    6.6967124  
  13 C       3.8492625    2.5511905 *  1.5109843 *  2.5291244 *  3.7980814  
  14 N       3.7330077    4.2264498    3.7345816    2.4490771 *  1.4549233 *
  15 O       4.0916985    4.9067747    4.6923528    3.5286111    2.2855693 *
  16 C       1.5111543 *  2.5359710 *  3.8499371    4.3291054    3.7994748  
  17 O       4.6939659    4.9147635    4.0985056    2.7004993 *  2.2862962 *
  18 H       2.1444458 *  3.3952421    3.8871235    3.3902757    2.1366127 *
  19 H       2.1491488 *  3.4302261    4.6104997    4.8202539    3.9999420  
  20 H       2.1483644 *  2.7957783 *  4.1472632    4.8078617    4.4450229  
  21 H       2.1610488 *  2.8995110 *  4.2462940    4.8479188    4.4187655  
  22 H       4.2563208    2.9277387 *  2.1622263 *  3.2072627    4.4115897  
  23 H       4.6083736    3.4437189    2.1485738 *  2.6191543 *  3.9987759  
  24 H       4.1399642    2.7998721 *  2.1487422 *  3.2835702    4.4498731  
  25 H       3.1871750    2.6204352 *  3.1127426    3.9303953    4.2819199  
  26 H       6.5674686    5.8306072    6.5261673    7.7368982    8.2636671  
  27 H       5.4843607    4.9166123    5.4099293    6.3051937    6.7118589  
  28 H       3.8890660    3.4096829    2.1501059 *  1.0711229 *  2.1318332 *

                6 C          7 N          8 C          9 N         10 C     

   1 C       1.3917603 *  2.4377866 *  3.2180165    3.5581932    4.8863944  
   2 C       2.4172142 *  1.4101046 *  2.3084977 *  2.8379532 *  4.2112801  
   3 C       2.8164612 *  2.4520277 *  3.1992602    3.5027872    4.8269120  
   4 C       2.4298618 *  3.7186622    4.4626540    4.5544422    5.8796939  
   5 C       1.3932264 *  4.1808476    4.9533969    4.9896868    6.3358165  
   6 C       0.0000000    3.7033523    4.4698518    4.5913499    5.9226779  
   7 N       3.7033523    0.0000000    1.2566834 *  2.3794734 *  3.5537639  
   8 C       4.4698518    1.2566834 *  0.0000000    1.3719528 *  2.3370102 *
   9 N       4.5913499    2.3794734 *  1.3719528 *  0.0000000    1.3894151 *
  10 C       5.9226779    3.5537639    2.3370102 *  1.3894151 *  0.0000000  
  11 C       6.7152417    3.7546984    2.5206916 *  2.2736926 *  1.3209792 *
  12 S       6.1533420    2.6628465 *  1.7700040 *  2.5530571 *  2.5571015 *
  13 C       4.3271101    2.8943379 *  3.4026916    3.7709521    4.8701957  
  14 N       2.4538832 *  5.6357381    6.3827750    6.3106578    7.6134706  
  15 O       2.7007650 *  6.2890175    7.0257695    6.9335157    8.2110308  
  16 C       2.5214614 *  2.8708310 *  3.4397842    3.8763888    4.9908445  
  17 O       3.5349775    6.2988215    7.0221368    6.9108595    8.1818076  
  18 H       1.0710241 *  4.5773010    5.2965309    5.3673047    6.6339567  
  19 H       2.6116661 *  3.9340630    4.5073250    4.8320109    5.9082859  
  20 H       3.2675164    2.7436579 *  3.4503210    4.2234734    5.2787295  
  21 H       3.2094428    2.9570492 *  3.1068543    3.3107223    4.2395608  
  22 H       4.8477521    3.0066749    3.0887793    3.1950145    4.1034033  
  23 H       4.8192436    3.9541941    4.4741381    4.7325521    5.7878911  
  24 H       4.8049295    2.7487734 *  3.3881524    4.1024888    5.1381810  
  25 H       3.9844653    2.6894924 *  2.0688470 *  0.9949019 *  2.1069149 *
  26 H       7.7653058    4.7806131    3.5670632    3.3035218    2.1443953 *
  27 H       6.3636976    4.4687704    3.3126655    2.1234993 *  1.0706744 *
  28 H       3.3927325    4.5958466    5.2822348    5.3084361    6.5628112  

               11 C         12 S         13 C         14 N         15 O     

   1 C       5.5211744    4.8283541    3.8492625    3.7330077    4.0916985  
   2 C       4.7653320    3.9783903    2.5511905 *  4.2264498    4.9067747  
   3 C       5.4808826    4.8214304    1.5109843 *  3.7345816    4.6923528  
   4 C       6.6885855    6.1544513    2.5291244 *  2.4490771 *  3.5286111  
   5 C       7.2037219    6.6967124    3.7980814    1.4549233 *  2.2855693 *
   6 C       6.7152417    6.1533420    4.3271101    2.4538832 *  2.7007650 *
   7 N       3.7546984    2.6628465 *  2.8943379 *  5.6357381    6.2890175  
   8 C       2.5206916 *  1.7700040 *  3.4026916    6.3827750    7.0257695  
   9 N       2.2736926 *  2.5530571 *  3.7709521    6.3106578    6.9335157  
  10 C       1.3209792 *  2.5571015 *  4.8701957    7.6134706    8.2110308  
  11 C       0.0000000    1.7621934 *  5.3523667    8.5607873    9.1688297  
  12 S       1.7621934 *  0.0000000    4.6852917    8.1363113    8.7632500  
  13 C       5.3523667    4.6852917    0.0000000    4.9774672    6.0408412  
  14 N       8.5607873    8.1363113    4.9774672    0.0000000    1.2074931 *
  15 O       9.1688297    8.7632500    6.0408412    1.2074931 *  0.0000000  
  16 C       5.4373794    4.7010173    5.0848415    4.9744534    5.0598966  
  17 O       9.1503613    8.7642689    5.0694571    1.2074914 *  2.1318951 *
  18 H       7.4379609    6.9197511    5.3976525    2.6502102 *  2.3904801 *
  19 H       6.4080785    5.7432287    5.9569981    4.9313459    4.7571389  
  20 H       5.4742111    4.4342330    5.2076286    5.6706826    5.8138467  
  21 H       4.7077344    4.2337847    5.3603084    5.6071986    5.7068941  
  22 H       4.6247607    4.2440357    1.0858266 *  5.5991209    6.6377119  
  23 H       6.3230191    5.7287242    1.0836295 *  4.9367201    6.0902788  
  24 H       5.3614746    4.3902537    1.0834203 *  5.6830286    6.6960449  
  25 H       3.2050288    3.5138784    3.6162864    5.5167907    6.1337297  
  26 H       1.0686772 *  2.4922164 *  6.3090745    9.6097708   10.2081321  
  27 H       2.1451164 *  3.6088461    5.4832390    7.8765102    8.4426261  
  28 H       7.3915706    6.9173252    2.7385451 *  2.6483150 *  3.8465947  

               16 C         17 O         18 H         19 H         20 H     

   1 C       1.5111543 *  4.6939659    2.1444458 *  2.1491488 *  2.1483644 *
   2 C       2.5359710 *  4.9147635    3.3952421    3.4302261    2.7957783 *
   3 C       3.8499371    4.0985056    3.8871235    4.6104997    4.1472632  
   4 C       4.3291054    2.7004993 *  3.3902757    4.8202539    4.8078617  
   5 C       3.7994748    2.2862962 *  2.1366127 *  3.9999420    4.4450229  
   6 C       2.5214614 *  3.5349775    1.0710241 *  2.6116661 *  3.2675164  
   7 N       2.8708310 *  6.2988215    4.5773010    3.9340630    2.7436579 *
   8 C       3.4397842    7.0221368    5.2965309    4.5073250    3.4503210  
   9 N       3.8763888    6.9108595    5.3673047    4.8320109    4.2234734  
  10 C       4.9908445    8.1818076    6.6339567    5.9082859    5.2787295  
  11 C       5.4373794    9.1503613    7.4379609    6.4080785    5.4742111  
  12 S       4.7010173    8.7642689    6.9197511    5.7432287    4.4342330  
  13 C       5.0848415    5.0694571    5.3976525    5.9569981    5.2076286  
  14 N       4.9744534    1.2074914 *  2.6502102 *  4.9313459    5.6706826  
  15 O       5.0598966    2.1318951 *  2.3904801 *  4.7571389    5.8138467  
  16 C       0.0000000    6.0407408    2.7301634 *  1.0835111 *  1.0835328 *
  17 O       6.0407408    0.0000000    3.8489166    6.0874233    6.6896935  
  18 H       2.7301634 *  3.8489166    0.0000000    2.3733382 *  3.5394394  
  19 H       1.0835111 *  6.0874233    2.3733382 *  0.0000000    1.7596227 *
  20 H       1.0835328 *  6.6896935    3.5394394    1.7596227 *  0.0000000  
  21 H       1.0857055 *  6.6452153    3.4253159    1.7530570 *  1.7461558 *
  22 H       5.3762059    5.6984954    5.9045555    6.3093227    5.5608166  
  23 H       5.9546818    4.7706489    5.8647695    6.7451939    6.1194084  
  24 H       5.1971638    5.8376428    5.8555863    6.1181434    5.0918747  
  25 H       3.7471163    6.1012681    4.7497503    4.5956862    4.3120521  
  26 H       6.3970977   10.1875207    8.4616304    7.3382473    6.3954512  
  27 H       5.6330896    8.4009267    7.0163309    6.4570411    6.0640280  
  28 H       5.3998014    2.3928261 *  4.2616052    5.8663086    5.8585815  

               21 H         22 H         23 H         24 H         25 H     

   1 C       2.1610488 *  4.2563208    4.6083736    4.1399642    3.1871750  
   2 C       2.8995110 *  2.9277387 *  3.4437189    2.7998721 *  2.6204352 *
   3 C       4.2462940    2.1622263 *  2.1485738 *  2.1487422 *  3.1127426  
   4 C       4.8479188    3.2072627    2.6191543 *  3.2835702    3.9303953  
   5 C       4.4187655    4.4115897    3.9987759    4.4498731    4.2819199  
   6 C       3.2094428    4.8477521    4.8192436    4.8049295    3.9844653  
   7 N       2.9570492 *  3.0066749    3.9541941    2.7487734 *  2.6894924 *
   8 C       3.1068543    3.0887793    4.4741381    3.3881524    2.0688470 *
   9 N       3.3107223    3.1950145    4.7325521    4.1024888    0.9949019 *
  10 C       4.2395608    4.1034033    5.7878911    5.1381810    2.1069149 *
  11 C       4.7077344    4.6247607    6.3230191    5.3614746    3.2050288  
  12 S       4.2337847    4.2440357    5.7287242    4.3902537    3.5138784  
  13 C       5.3603084    1.0858266 *  1.0836295 *  1.0834203 *  3.6162864  
  14 N       5.6071986    5.5991209    4.9367201    5.6830286    5.5167907  
  15 O       5.7068941    6.6377119    6.0902788    6.6960449    6.1337297  
  16 C       1.0857055 *  5.3762059    5.9546818    5.1971638    3.7471163  
  17 O       6.6452153    5.6984954    4.7706489    5.8376428    6.1012681  
  18 H       3.4253159    5.9045555    5.8647695    5.8555863    4.7497503  
  19 H       1.7530570 *  6.3093227    6.7451939    6.1181434    4.5956862  
  20 H       1.7461558 *  5.5608166    6.1194084    5.0918747    4.3120521  
  21 H       0.0000000    5.4357040    6.2977740    5.5256190    3.2652589  
  22 H       5.4357040    0.0000000    1.7518415 *  1.7470509 *  3.1127841  
  23 H       6.2977740    1.7518415 *  0.0000000    1.7588977 *  4.4697971  
  24 H       5.5256190    1.7470509 *  1.7588977 *  0.0000000    4.1784386  
  25 H       3.2652589    3.1127841    4.4697971    4.1784386    0.0000000  
  26 H       5.6128134    5.5268850    7.2475786    6.2788388    4.1906043  
  27 H       4.8200603    4.6423402    6.3021101    5.8996849    2.4537893 *
  28 H       5.9046069    3.4155408    2.3846478 *  3.5616009    4.6672360  

               26 H         27 H         28 H     

   1 C       6.5674686    5.4843607    3.8890660  
   2 C       5.8306072    4.9166123    3.4096829  
   3 C       6.5261673    5.4099293    2.1501059 *
   4 C       7.7368982    6.3051937    1.0711229 *
   5 C       8.2636671    6.7118589    2.1318332 *
   6 C       7.7653058    6.3636976    3.3927325  
   7 N       4.7806131    4.4687704    4.5958466  
   8 C       3.5670632    3.3126655    5.2822348  
   9 N       3.3035218    2.1234993 *  5.3084361  
  10 C       2.1443953 *  1.0706744 *  6.5628112  
  11 C       1.0686772 *  2.1451164 *  7.3915706  
  12 S       2.4922164 *  3.6088461    6.9173252  
  13 C       6.3090745    5.4832390    2.7385451 *
  14 N       9.6097708    7.8765102    2.6483150 *
  15 O      10.2081321    8.4426261    3.8465947  
  16 C       6.3970977    5.6330896    5.3998014  
  17 O      10.1875207    8.4009267    2.3928261 *
  18 H       8.4616304    7.0163309    4.2616052  
  19 H       7.3382473    6.4570411    5.8663086  
  20 H       6.3954512    6.0640280    5.8585815  
  21 H       5.6128134    4.8200603    5.9046069  
  22 H       5.5268850    4.6423402    3.4155408  
  23 H       7.2475786    6.3021101    2.3846478 *
  24 H       6.2788388    5.8996849    3.5616009  
  25 H       4.1906043    2.4537893 *  4.6672360  
  26 H       0.0000000    2.6160690 *  8.4115723  
  27 H       2.6160690 *  0.0000000    6.9195938  
  28 H       8.4115723    6.9195938    0.0000000  

  * ... LESS THAN  3.000


     ATOMIC BASIS SET
     ----------------
 THE CONTRACTED PRIMITIVE FUNCTIONS HAVE BEEN UNNORMALIZED
 THE CONTRACTED BASIS FUNCTIONS ARE NOW NORMALIZED TO UNITY

  SHELL TYPE  PRIMITIVE        EXPONENT          CONTRACTION COEFFICIENT(S)

 C         

      1   S       1          3047.5248800    0.001834737132
      1   S       2           457.3695180    0.014037322813
      1   S       3           103.9486850    0.068842622264
      1   S       4            29.2101553    0.232184443216
      1   S       5             9.2866630    0.467941348435
      1   S       6             3.1639270    0.362311985337

      2   L       7             7.8682723   -0.119332419775    0.068999066591
      2   L       8             1.8812885   -0.160854151696    0.316423960957
      2   L       9             0.5442493    1.143456437840    0.744308290898

      3   L      10             0.1687145    1.000000000000    1.000000000000

      4   D      11             0.8000000    1.000000000000

 C         

      5   S      12          3047.5248800    0.001834737132
      5   S      13           457.3695180    0.014037322813
      5   S      14           103.9486850    0.068842622264
      5   S      15            29.2101553    0.232184443216
      5   S      16             9.2866630    0.467941348435
      5   S      17             3.1639270    0.362311985337

      6   L      18             7.8682723   -0.119332419775    0.068999066591
      6   L      19             1.8812885   -0.160854151696    0.316423960957
      6   L      20             0.5442493    1.143456437840    0.744308290898

      7   L      21             0.1687145    1.000000000000    1.000000000000

      8   D      22             0.8000000    1.000000000000

 C         

      9   S      23          3047.5248800    0.001834737132
      9   S      24           457.3695180    0.014037322813
      9   S      25           103.9486850    0.068842622264
      9   S      26            29.2101553    0.232184443216
      9   S      27             9.2866630    0.467941348435
      9   S      28             3.1639270    0.362311985337

     10   L      29             7.8682723   -0.119332419775    0.068999066591
     10   L      30             1.8812885   -0.160854151696    0.316423960957
     10   L      31             0.5442493    1.143456437840    0.744308290898

     11   L      32             0.1687145    1.000000000000    1.000000000000

     12   D      33             0.8000000    1.000000000000

 C         

     13   S      34          3047.5248800    0.001834737132
     13   S      35           457.3695180    0.014037322813
     13   S      36           103.9486850    0.068842622264
     13   S      37            29.2101553    0.232184443216
     13   S      38             9.2866630    0.467941348435
     13   S      39             3.1639270    0.362311985337

     14   L      40             7.8682723   -0.119332419775    0.068999066591
     14   L      41             1.8812885   -0.160854151696    0.316423960957
     14   L      42             0.5442493    1.143456437840    0.744308290898

     15   L      43             0.1687145    1.000000000000    1.000000000000

     16   D      44             0.8000000    1.000000000000

 C         

     17   S      45          3047.5248800    0.001834737132
     17   S      46           457.3695180    0.014037322813
     17   S      47           103.9486850    0.068842622264
     17   S      48            29.2101553    0.232184443216
     17   S      49             9.2866630    0.467941348435
     17   S      50             3.1639270    0.362311985337

     18   L      51             7.8682723   -0.119332419775    0.068999066591
     18   L      52             1.8812885   -0.160854151696    0.316423960957
     18   L      53             0.5442493    1.143456437840    0.744308290898

     19   L      54             0.1687145    1.000000000000    1.000000000000

     20   D      55             0.8000000    1.000000000000

 C         

     21   S      56          3047.5248800    0.001834737132
     21   S      57           457.3695180    0.014037322813
     21   S      58           103.9486850    0.068842622264
     21   S      59            29.2101553    0.232184443216
     21   S      60             9.2866630    0.467941348435
     21   S      61             3.1639270    0.362311985337

     22   L      62             7.8682723   -0.119332419775    0.068999066591
     22   L      63             1.8812885   -0.160854151696    0.316423960957
     22   L      64             0.5442493    1.143456437840    0.744308290898

     23   L      65             0.1687145    1.000000000000    1.000000000000

     24   D      66             0.8000000    1.000000000000

 N         

     25   S      67          4173.5114600    0.001834772160
     25   S      68           627.4579110    0.013994627002
     25   S      69           142.9020930    0.068586551812
     25   S      70            40.2343293    0.232240873040
     25   S      71            12.8202129    0.469069948082
     25   S      72             4.3904370    0.360455199063

     26   L      73            11.6263619   -0.114961181702    0.067579743878
     26   L      74             2.7162798   -0.169117478561    0.323907295893
     26   L      75             0.7722184    1.145851947027    0.740895139755

     27   L      76             0.2120315    1.000000000000    1.000000000000

     28   D      77             0.8000000    1.000000000000

 C         

     29   S      78          3047.5248800    0.001834737132
     29   S      79           457.3695180    0.014037322813
     29   S      80           103.9486850    0.068842622264
     29   S      81            29.2101553    0.232184443216
     29   S      82             9.2866630    0.467941348435
     29   S      83             3.1639270    0.362311985337

     30   L      84             7.8682723   -0.119332419775    0.068999066591
     30   L      85             1.8812885   -0.160854151696    0.316423960957
     30   L      86             0.5442493    1.143456437840    0.744308290898

     31   L      87             0.1687145    1.000000000000    1.000000000000

     32   D      88             0.8000000    1.000000000000

 N         

     33   S      89          4173.5114600    0.001834772160
     33   S      90           627.4579110    0.013994627002
     33   S      91           142.9020930    0.068586551812
     33   S      92            40.2343293    0.232240873040
     33   S      93            12.8202129    0.469069948082
     33   S      94             4.3904370    0.360455199063

     34   L      95            11.6263619   -0.114961181702    0.067579743878
     34   L      96             2.7162798   -0.169117478561    0.323907295893
     34   L      97             0.7722184    1.145851947027    0.740895139755

     35   L      98             0.2120315    1.000000000000    1.000000000000

     36   D      99             0.8000000    1.000000000000

 C         

     37   S     100          3047.5248800    0.001834737132
     37   S     101           457.3695180    0.014037322813
     37   S     102           103.9486850    0.068842622264
     37   S     103            29.2101553    0.232184443216
     37   S     104             9.2866630    0.467941348435
     37   S     105             3.1639270    0.362311985337

     38   L     106             7.8682723   -0.119332419775    0.068999066591
     38   L     107             1.8812885   -0.160854151696    0.316423960957
     38   L     108             0.5442493    1.143456437840    0.744308290898

     39   L     109             0.1687145    1.000000000000    1.000000000000

     40   D     110             0.8000000    1.000000000000

 C         

     41   S     111          3047.5248800    0.001834737132
     41   S     112           457.3695180    0.014037322813
     41   S     113           103.9486850    0.068842622264
     41   S     114            29.2101553    0.232184443216
     41   S     115             9.2866630    0.467941348435
     41   S     116             3.1639270    0.362311985337

     42   L     117             7.8682723   -0.119332419775    0.068999066591
     42   L     118             1.8812885   -0.160854151696    0.316423960957
     42   L     119             0.5442493    1.143456437840    0.744308290898

     43   L     120             0.1687145    1.000000000000    1.000000000000

     44   D     121             0.8000000    1.000000000000

 S         

     45   S     122         21917.1000000    0.001869240849
     45   S     123          3301.4900000    0.014230306464
     45   S     124           754.1460000    0.069696231659
     45   S     125           212.7110000    0.238487108332
     45   S     126            67.9896000    0.483307219541
     45   S     127            23.0515000    0.338074153569

     46   L     128           423.7350000   -0.002376770499    0.004061009982
     46   L     129           100.7100000   -0.031693006651    0.030681299864
     46   L     130            32.1599000   -0.113317023779    0.130451999421
     46   L     131            11.8079000    0.056090011770    0.327204998547
     46   L     132             4.6311000    0.592255124284    0.452850997989
     46   L     133             1.8702500    0.455006095483    0.256041998863

     47   L     134             2.6158400   -0.250373114159   -0.014510489547
     47   L     135             0.9221670    0.066956763101    0.310262776489
     47   L     136             0.3412870    1.054506269068    0.754482456476

     48   L     137             0.1171670    1.000000000000    1.000000000000

     49   D     138             0.6500000    1.000000000000

 C         

     50   S     139          3047.5248800    0.001834737132
     50   S     140           457.3695180    0.014037322813
     50   S     141           103.9486850    0.068842622264
     50   S     142            29.2101553    0.232184443216
     50   S     143             9.2866630    0.467941348435
     50   S     144             3.1639270    0.362311985337

     51   L     145             7.8682723   -0.119332419775    0.068999066591
     51   L     146             1.8812885   -0.160854151696    0.316423960957
     51   L     147             0.5442493    1.143456437840    0.744308290898

     52   L     148             0.1687145    1.000000000000    1.000000000000

     53   D     149             0.8000000    1.000000000000

 N         

     54   S     150          4173.5114600    0.001834772160
     54   S     151           627.4579110    0.013994627002
     54   S     152           142.9020930    0.068586551812
     54   S     153            40.2343293    0.232240873040
     54   S     154            12.8202129    0.469069948082
     54   S     155             4.3904370    0.360455199063

     55   L     156            11.6263619   -0.114961181702    0.067579743878
     55   L     157             2.7162798   -0.169117478561    0.323907295893
     55   L     158             0.7722184    1.145851947027    0.740895139755

     56   L     159             0.2120315    1.000000000000    1.000000000000

     57   D     160             0.8000000    1.000000000000

 O         

     58   S     161          5484.6716600    0.001831074430
     58   S     162           825.2349460    0.013950172200
     58   S     163           188.0469580    0.068445078098
     58   S     164            52.9645000    0.232714335992
     58   S     165            16.8975704    0.470192897984
     58   S     166             5.7996353    0.358520852987

     59   L     167            15.5396162   -0.110777549525    0.070874268231
     59   L     168             3.5999336   -0.148026262701    0.339752839147
     59   L     169             1.0137618    1.130767015354    0.727158577316

     60   L     170             0.2700058    1.000000000000    1.000000000000

     61   D     171             0.8000000    1.000000000000

 C         

     62   S     172          3047.5248800    0.001834737132
     62   S     173           457.3695180    0.014037322813
     62   S     174           103.9486850    0.068842622264
     62   S     175            29.2101553    0.232184443216
     62   S     176             9.2866630    0.467941348435
     62   S     177             3.1639270    0.362311985337

     63   L     178             7.8682723   -0.119332419775    0.068999066591
     63   L     179             1.8812885   -0.160854151696    0.316423960957
     63   L     180             0.5442493    1.143456437840    0.744308290898

     64   L     181             0.1687145    1.000000000000    1.000000000000

     65   D     182             0.8000000    1.000000000000

 O         

     66   S     183          5484.6716600    0.001831074430
     66   S     184           825.2349460    0.013950172200
     66   S     185           188.0469580    0.068445078098
     66   S     186            52.9645000    0.232714335992
     66   S     187            16.8975704    0.470192897984
     66   S     188             5.7996353    0.358520852987

     67   L     189            15.5396162   -0.110777549525    0.070874268231
     67   L     190             3.5999336   -0.148026262701    0.339752839147
     67   L     191             1.0137618    1.130767015354    0.727158577316

     68   L     192             0.2700058    1.000000000000    1.000000000000

     69   D     193             0.8000000    1.000000000000

 H         

     70   S     194            18.7311370    0.033494604338
     70   S     195             2.8253944    0.234726953484
     70   S     196             0.6401217    0.813757326146

     71   S     197             0.1612778    1.000000000000

 H         

     72   S     198            18.7311370    0.033494604338
     72   S     199             2.8253944    0.234726953484
     72   S     200             0.6401217    0.813757326146

     73   S     201             0.1612778    1.000000000000

 H         

     74   S     202            18.7311370    0.033494604338
     74   S     203             2.8253944    0.234726953484
     74   S     204             0.6401217    0.813757326146

     75   S     205             0.1612778    1.000000000000

 H         

     76   S     206            18.7311370    0.033494604338
     76   S     207             2.8253944    0.234726953484
     76   S     208             0.6401217    0.813757326146

     77   S     209             0.1612778    1.000000000000

 H         

     78   S     210            18.7311370    0.033494604338
     78   S     211             2.8253944    0.234726953484
     78   S     212             0.6401217    0.813757326146

     79   S     213             0.1612778    1.000000000000

 H         

     80   S     214            18.7311370    0.033494604338
     80   S     215             2.8253944    0.234726953484
     80   S     216             0.6401217    0.813757326146

     81   S     217             0.1612778    1.000000000000

 H         

     82   S     218            18.7311370    0.033494604338
     82   S     219             2.8253944    0.234726953484
     82   S     220             0.6401217    0.813757326146

     83   S     221             0.1612778    1.000000000000

 H         

     84   S     222            18.7311370    0.033494604338
     84   S     223             2.8253944    0.234726953484
     84   S     224             0.6401217    0.813757326146

     85   S     225             0.1612778    1.000000000000

 H         

     86   S     226            18.7311370    0.033494604338
     86   S     227             2.8253944    0.234726953484
     86   S     228             0.6401217    0.813757326146

     87   S     229             0.1612778    1.000000000000

 H         

     88   S     230            18.7311370    0.033494604338
     88   S     231             2.8253944    0.234726953484
     88   S     232             0.6401217    0.813757326146

     89   S     233             0.1612778    1.000000000000

 H         

     90   S     234            18.7311370    0.033494604338
     90   S     235             2.8253944    0.234726953484
     90   S     236             0.6401217    0.813757326146

     91   S     237             0.1612778    1.000000000000

 TOTAL NUMBER OF BASIS SET SHELLS             =   91
 NUMBER OF CARTESIAN GAUSSIAN BASIS FUNCTIONS =  281
 NOTE: THIS RUN WILL RESTRICT THE MO VARIATION SPACE TO SPHERICAL HARMONICS.
 THE NUMBER OF ORBITALS KEPT IN THE VARIATIONAL SPACE WILL BE PRINTED LATER.
 NUMBER OF ELECTRONS                          =  130
 CHARGE OF MOLECULE                           =    0
 SPIN MULTIPLICITY                            =    1
 NUMBER OF OCCUPIED ORBITALS (ALPHA)          =   65
 NUMBER OF OCCUPIED ORBITALS (BETA )          =   65
 TOTAL NUMBER OF ATOMS                        =   28
 THE NUCLEAR REPULSION ENERGY IS     1275.8016169360

     $CONTRL OPTIONS
     ---------------
 SCFTYP=MCSCF        RUNTYP=ENERGY       EXETYP=RUN     
 MPLEVL=       2     CITYP =NONE         CCTYP =NONE         VBTYP =NONE    
 DFTTYP=NONE         TDDFT =NONE    
 MULT  =       1     ICHARG=       0     NZVAR =       0     COORD =UNIQUE  
 PP    =NONE         RELWFN=NONE         LOCAL =NONE         NUMGRD=       F
 ISPHER=       1     NOSYM =       0     MAXIT =     100     UNITS =ANGS    
 PLTORB=       F     MOLPLT=       F     AIMPAC=       F     FRIEND=        
 NPRINT=       7     IREST =       0     GEOM  =INPUT   
 NORMF =       0     NORMP =       0     ITOL  =      20     ICUT  =       9
 INTTYP=BEST         GRDTYP=BEST         QMTTOL= 1.0E-06

     $SYSTEM OPTIONS
     ---------------
  REPLICATED MEMORY=   200000000 WORDS (ON EVERY NODE).
 DISTRIBUTED MEMDDI=         400 MILLION WORDS IN AGGREGATE,
 MEMDDI DISTRIBUTED OVER   4 PROCESSORS IS   100000000 WORDS/PROCESSOR.
 TOTAL MEMORY REQUESTED ON EACH PROCESSOR=   300000000 WORDS.
 TIMLIM=      525600.00 MINUTES, OR     365.0 DAYS.
 PARALL= T  BALTYP=  DLB     KDIAG=    0  COREFL= F
 MXSEQ2=     300 MXSEQ3=     150

          ----------------
          PROPERTIES INPUT
          ----------------

     MOMENTS            FIELD           POTENTIAL          DENSITY
 IEMOM =       1   IEFLD =       0   IEPOT =       0   IEDEN =       0
 WHERE =COMASS     WHERE =NUCLEI     WHERE =NUCLEI     WHERE =NUCLEI  
 OUTPUT=BOTH       OUTPUT=BOTH       OUTPUT=BOTH       OUTPUT=BOTH    
 IEMINT=       0   IEFINT=       0                     IEDINT=       0
                                                       MORB  =       0

     -------------------------------
     INTEGRAL TRANSFORMATION OPTIONS
     -------------------------------
     NWORD  =            0
     CUTOFF = 1.0E-09     MPTRAN =       0
     DIRTRF =       F     AOINTS =DUP     
 INTEGRAL TRANSFORMATION OPTION -DIRTRF- FORCED TRUE,
 DUE TO THE CHOICE OF -FULLNR- IN A PARALLEL JOB.

          ----------------------
          MCSCF INPUT PARAMETERS
          ----------------------
 CONVERGER SELECTION: FOCAS = F  SOSCF = F  FULLNR = T  QUD = F  JACOBI = F
 SECULAR EQUATION METHOD CISTEP = GUGA    
 --- GENERAL INPUT OPTIONS:
 MAXIT =     100  MICIT =       1  ACURCY= 1.000E-05
 DAMP  =   0.000  CANONC=       T  ENGTOL= 1.000E-10
 EKT   =       F  NPUNCH=       2  NWORD =         0
 REGENERATE CI AFTER CONVERGENCE = NONE    
 DIABATIZATION AFTER CONVERGENCE =        F
 --- INPUT FOR FULLNR CONVERGER:
 METHOD=DM2       FORS  =       F  DROPC =       T
 LINSER=       F  FCORE =       F  NORB  =     281

          ----------------------
          INTEGRAL INPUT OPTIONS
          ----------------------
 NOPK  =       1 NORDER=       0 SCHWRZ=       T

 ------------------------------------------
 MULTIREFERENCE PERTURBATION THEORY CONTROL
 ------------------------------------------
 MRPT=MCQDPT   READ CONVERGED MCSCF VECTORS= F

 
    ----------------------------
    MRMP/MCQDPT INPUT PARAMETERS
    ----------------------------
 # OF ELECTRONS                =       130
 SPIN MULTIPLICITY             =         1
 SPATIAL STATE SYMMETRY        =         1
 # OF STATES                   =         5 (DIMENSION OF EFFECTIVE HAMILTONIAN)
 # OF FROZEN CORE ORBITALS     =        21
 # OF DOUBLY OCCUPIED ORBITALS =        38
 # OF ACTIVE ORBITALS          =        12
 # OF EXTERNAL ORBITALS        =       210
 # OF FROZEN VIRTUAL ORBITALS  =         0

      IFORB      IROT    ISELCT    LENGTH    MAXCSF    MAXERI
          1         0         0      4096      2048      4096
     MAXROW       MDI    MXBASE    MXTRFR    NSOLUT     NSTCI     NSTOP
        200        50        50        80         5         5       100
     GENZRO    THRCON    THRENE    THRERI    THRGEN    THRWGT    REFWGT
  1.000D-12 1.000D-06-1.000D+00 1.000D-12 1.000D-08 1.000D-06       F
      NOSYM    PARAIO    DOORD0    DELSCR
          1         T         T         F

 INTRUDER STATE FREE TECHNIQUE WILL BE USED,
 WITH PARAMETERS:   0.020000 (SPIN-FREE) AND  0.100000 (SPIN-ORBIT) (A.U.)


 NOTE: MCQDPT RUNS CANNOT BE AO INTEGRAL DIRECT.
 AN AO INTEGRAL FILE WILL STILL BE GENERATED,
 BEFORE THE MCQDPT CALCULATION IS STARTED.

 THE WEIGHTS OF THE CAS STATES IN THE DENSITY MATRIX AVERAGING ARE
   1=  0.200000   2=  0.200000   3=  0.200000   4=  0.200000   5=  0.200000

     ------------------------------------------
     THE POINT GROUP IS C1 , NAXIS= 0, ORDER= 1
     ------------------------------------------

 -- VARIATIONAL SPACE WILL BE RESTRICTED TO PURE SPHERICAL HARMONICS ONLY --
 AFTER EXCLUDING CONTAMINANT COMBINATIONS FROM THE CARTESIAN GAUSSIAN BASIS
 SET, THE NUMBER OF SPHERICAL HARMONICS KEPT IN THE VARIATION SPACE IS  264

     DIMENSIONS OF THE SYMMETRY SUBSPACES ARE
 A   =  264

 ..... DONE SETTING UP THE RUN .....
 CPU     0: STEP CPU TIME=     0.59 TOTAL CPU TIME=        0.6 (    0.0 MIN)
 TOTAL WALL CLOCK TIME=        1.0 SECONDS, CPU UTILIZATION IS  58.25%

          ********************
          1 ELECTRON INTEGRALS
          ********************
 TIME TO DO   DIPOLE INTEGRALS=      0.05
 ...... END OF ONE-ELECTRON INTEGRALS ......
 CPU     0: STEP CPU TIME=     0.05 TOTAL CPU TIME=        0.7 (    0.0 MIN)
 TOTAL WALL CLOCK TIME=        1.2 SECONDS, CPU UTILIZATION IS  56.52%

          -------------
          GUESS OPTIONS
          -------------
          GUESS =MOREAD            NORB  =     264          NORDER=       0
          MIX   =       F          PRTMO =       F          PUNMO =       F
          TOLZ  = 1.0E-08          TOLE  = 1.0E-05
          SYMDEN=       F          PURIFY=       F

 INITIAL GUESS ORBITALS GENERATED BY MOREAD   ROUTINE.

 STATISTICS FOR GENERATION OF SYMMETRY ORBITAL -Q- MATRIX
 NUMBER OF CARTESIAN ATOMIC ORBITALS=        281
 NUMBER OF SPHERICAL CONTAMINANTS DROPPED=    17
 NUMBER OF LINEARLY DEPENDENT MOS DROPPED=     0
 TOTAL NUMBER OF MOS IN VARIATION SPACE=     264

 SYMMETRIES FOR INITIAL GUESS ORBITALS FOLLOW.   BOTH SET(S).
    71 ORBITALS ARE OCCUPIED (   21 CORE ORBITALS).
     1=A        2=A        3=A        4=A        5=A        6=A        7=A   
     8=A        9=A       10=A       11=A       12=A       13=A       14=A   
    15=A       16=A       17=A       18=A       19=A       20=A       21=A   
    22=A       23=A       24=A       25=A       26=A       27=A       28=A   
    29=A       30=A       31=A       32=A       33=A       34=A       35=A   
    36=A       37=A       38=A       39=A       40=A       41=A       42=A   
    43=A       44=A       45=A       46=A       47=A       48=A       49=A   
    50=A       51=A       52=A       53=A       54=A       55=A       56=A   
    57=A       58=A       59=A       60=A       61=A       62=A       63=A   
    64=A       65=A       66=A       67=A       68=A       69=A       70=A   
    71=A       72=A       73=A       74=A       75=A       76=A       77=A   
    78=A       79=A       80=A       81=A       82=A       83=A       84=A   
    85=A       86=A       87=A       88=A       89=A       90=A       91=A   
    92=A       93=A       94=A       95=A       96=A       97=A       98=A   
    99=A      100=A      101=A      102=A      103=A      104=A      105=A   
   106=A      107=A      108=A      109=A      110=A      111=A      112=A   
   113=A      114=A      115=A      116=A      117=A      118=A      119=A   
   120=A      121=A      122=A      123=A      124=A      125=A      126=A   
   127=A      128=A      129=A      130=A      131=A      132=A      133=A   
   134=A      135=A      136=A      137=A      138=A      139=A      140=A   
   141=A      142=A      143=A      144=A      145=A      146=A      147=A   
   148=A      149=A      150=A      151=A      152=A      153=A      154=A   
   155=A      156=A      157=A      158=A      159=A      160=A      161=A   
   162=A      163=A      164=A      165=A      166=A      167=A      168=A   
   169=A      170=A      171=A      172=A      173=A      174=A      175=A   
   176=A      177=A      178=A      179=A      180=A      181=A      182=A   
   183=A      184=A      185=A      186=A      187=A      188=A      189=A   
   190=A      191=A      192=A      193=A      194=A      195=A      196=A   
   197=A      198=A      199=A      200=A      201=A      202=A      203=A   
   204=A      205=A      206=A      207=A      208=A      209=A      210=A   
   211=A      212=A      213=A      214=A      215=A      216=A      217=A   
   218=A      219=A      220=A      221=A      222=A      223=A      224=A   
   225=A      226=A      227=A      228=A      229=A      230=A      231=A   
   232=A      233=A      234=A      235=A      236=A      237=A      238=A   
   239=A      240=A      241=A      242=A      243=A      244=A      245=A   
   246=A      247=A      248=A      249=A      250=A      251=A      252=A   
   253=A      254=A      255=A      256=A      257=A      258=A      259=A   
   260=A      261=A      262=A      263=A      264=A   
 ...... END OF INITIAL ORBITAL SELECTION ......
 CPU     0: STEP CPU TIME=     0.31 TOTAL CPU TIME=        1.0 (    0.0 MIN)
 TOTAL WALL CLOCK TIME=        1.6 SECONDS, CPU UTILIZATION IS  58.90%

                    ----------------------
                    AO INTEGRAL TECHNOLOGY
                    ----------------------
     S,P,L SHELL ROTATED AXIS INTEGRALS, REPROGRAMMED BY
        KAZUYA ISHIMURA (IMS) AND JOSE SIERRA (SYNSTAR).
     S,P,D,L SHELL ROTATED AXIS INTEGRALS PROGRAMMED BY
        KAZUYA ISHIMURA (INSTITUTE FOR MOLECULAR SCIENCE).
     S,P,D,F,G SHELL TO TOTAL QUARTET ANGULAR MOMENTUM SUM 5,
        ERIC PROGRAM BY GRAHAM FLETCHER (ELORET AND NASA ADVANCED
        SUPERCOMPUTING DIVISION, AMES RESEARCH CENTER).
     S,P,D,F,G,L SHELL GENERAL RYS QUADRATURE PROGRAMMED BY
        MICHEL DUPUIS (PACIFIC NORTHWEST NATIONAL LABORATORY).
 DIRECT TRANSFORMATION SKIPS AO INTEGRAL STORAGE ON DISK.
  ...... END OF TWO-ELECTRON INTEGRALS .....
 STEP CPU TIME =     0.00 TOTAL CPU TIME =        1.0 (    0.0 MIN)
 TOTAL WALL CLOCK TIME=        1.7 SECONDS, CPU UTILIZATION IS  58.18%

          -----------------
          MCSCF CALCULATION
          -----------------

 ----- NUCLEAR ENERGY ----- =      1275.8016169360

          -----------------------     ----------------------------
          GUGA DISTINCT ROW TABLE     WRITTEN BY B.R.BROOKS,P.SAXE
          -----------------------     ----------------------------

      GROUP=C1           NPRT=       0
       FORS=       T   INTACT=       F
       FOCI=       F   MXNINT=   50000
       SOCI=       F   MXNEME=   10000
     IEXCIT=       0

      -CORE-    -INTERNAL-  -EXTERNAL-
     NFZC=   0   NDOC=   6   NEXT=   0
     NMCC=  59   NAOS=   0   NFZV=   0
                 NBOS=   0
                 NALP=   0
                 NVAL=   6

 THE MAXIMUM ELECTRON EXCITATION WILL BE  12

 SYMMETRIES FOR THE  59 CORE,  12 ACTIVE,   0 EXTERNAL MO-S ARE
     CORE= A     A     A     A     A     A     A     A     A     A   
           A     A     A     A     A     A     A     A     A     A   
           A     A     A     A     A     A     A     A     A     A   
           A     A     A     A     A     A     A     A     A     A   
           A     A     A     A     A     A     A     A     A     A   
           A     A     A     A     A     A     A     A     A   
   ACTIVE= A     A     A     A     A     A     A     A     A     A   
           DOC   DOC   DOC   DOC   DOC   DOC   VAL   VAL   VAL   VAL 
   ACTIVE= A     A   
           VAL   VAL 

 MOLECULAR CHARGE          =    0
 NUMBER OF ALPHA ELECTRONS =   65
 NUMBER OF  BETA ELECTRONS =   65

 THE ELECTRONIC STATE IS  1-A   

 THE DISTINCT ROW TABLE HAS       140 ROWS.
  THE WAVEFUNCTION CONTAINS    226512 WALKS (CSF-S).

 TOTAL NUMBER OF INTEGRALS =       3599
 NUMBER OF INTEGRALS/GROUP =       3599
 NUMBER OF INTEGRAL GROUPS =          1
 MAXIMUM RECORD SIZES ARE  226512 FOR UNIT 11  226512 FOR UNIT 12
                           226512 FOR UNIT 15   30001 FOR UNIT 16
 ...... END OF -DRT- GENERATION ...... 
 CPU     0: STEP CPU TIME=     1.00 TOTAL CPU TIME=        2.0 (    0.0 MIN)
 TOTAL WALL CLOCK TIME=        2.8 SECONDS, CPU UTILIZATION IS  69.50%

 EVALUATING EXCHANGE INTEGRALS FOR DIRECT INTEGRAL TRANSFORMATION
 SCHWARZ INEQUALITY OVERHEAD:     33737 INTEGRALS, T=        0.22

     --------------------------------------------
     PARTIAL TWO ELECTRON INTEGRAL TRANSFORMATION
     --------------------------------------------

 NUMBER OF CORE MOLECULAR ORBITALS     =   59
 NUMBER OF OCCUPIED MOLECULAR ORBITALS =   71
 TOTAL NUMBER OF MOLECULAR ORBITALS    =  264
 TOTAL NUMBER OF ATOMIC ORBITALS       =  281
 THRESHOLD FOR KEEPING TRANSFORMED 2E- INTEGRALS = 1.000E-09

 -------------------------------     ------------------------------
 DISTRIBUTED DATA TRANSFORMATION     PROGRAM WRITTEN BY G. FLETCHER
 -------------------------------     ------------------------------

 THE DISTRIBUTED MEMORY REQUIRED FOR THIS STEP IS MEMDDI=   345 MWORDS
 CREATING DISTRIBUTED STORAGE FOR [VIR OCC|VIR OCC] INTEGRALS
 DDI: Creating Array [0] - 78961 x 2556 = 201824316 words.
 CREATING DISTRIBUTED STORAGE FOR [VIR OCC|OCC OCC] INTEGRALS
 DDI: Creating Array [1] - 193 x 181476 = 35024868 words.
 CREATING DISTRIBUTED STORAGE FOR [OCC OCC|OCC OCC] INTEGRALS
 DDI: Creating Array [2] - 2556 x 2556 = 6533136 words.
 CREATING DISTRIBUTED STORAGE FOR [VIR VIR|OCC OCC] INTEGRALS
 DDI: Creating Array [3] - 39621 x 2556 = 101271276 words.
 FOR    4 PROCESSORS, THE REPLICATED MEMORY NEEDED IS   2326986 WORDS.
 SCHWARZ INEQUALITY OVERHEAD:     33737 INTEGRALS, T=        0.03

      DIRECT 4-INDEX TRANSFORMATION 
      SCHWARZ INEQUALITY TEST SKIPPED   11174917 INTEGRAL BLOCKS
 ----- FROZEN CORE ENERGY =     -2387.0603695274
 ... END OF INTEGRAL TRANSFORMATION ...
 CPU     0: STEP CPU TIME=    93.35 TOTAL CPU TIME=       95.3 (    1.6 MIN)
 TOTAL WALL CLOCK TIME=      157.2 SECONDS, CPU UTILIZATION IS  60.62%

          ------------------------
          GUGA-CI INTEGRAL SORTING
          ------------------------

     52893 WORDS NEEDED TO SORT           3599 GUGA INTEGRALS IN MEMORY
 200000000 WORDS ARE AVAILABLE
 CHOOSING IN-MEMORY SORTING...
 IN CORE ALGORITHM SORTED             78 NON-ZERO 1E- INTEGRALS
 IN CORE ALGORITHM SORTED           3081 NON-ZERO 2E- INTEGRALS
 ...... END OF INTEGRAL SORTING ...... 
 CPU     0: STEP CPU TIME=     0.01 TOTAL CPU TIME=       95.3 (    1.6 MIN)
 TOTAL WALL CLOCK TIME=      157.2 SECONDS, CPU UTILIZATION IS  60.62%

 -------------------------     ---------------------------------------
 ENERGY MATRIX CALCULATION     WRITTEN BY B.R.BROOKS,W.D.LAIDIG,P.SAXE
 -------------------------     ---------------------------------------

 COMPUTING THE HAMILTONIAN FOR THE    226512 CSF-S...

   294583221 IS THE TOTAL NUMBER OF GENERATED LOOPS
   294583221 WERE CREATED BY THE LOOP-DRIVEN ALGORITHM
           0 WERE CREATED IMPLICITLY

   277641799 IS THE TOTAL NUMBER OF PROCESSED LOOPS
     1047455     DIAGONAL LOOPS ARE STORED ON WORK15 IN    27 BUFFERS OF  10000 ELEMENTS.
   276594344 OFF DIAGONAL LOOPS ARE STORED ON WORK16 IN  6915 BUFFERS OF  10000 ELEMENTS.
 ...... END OF ENERGY MATRIX CALCULATION ...... 
 CPU     0: STEP CPU TIME=    45.16 TOTAL CPU TIME=      140.5 (    2.3 MIN)
 TOTAL WALL CLOCK TIME=      203.2 SECONDS, CPU UTILIZATION IS  69.14%

          -----------------------------------------
          DAVIDSON METHOD CI-MATRIX DIAGONALIZATION
                   WRITTEN BY STEVE ELBERT
          -----------------------------------------
 NUMBER OF STATES REQUESTED =     5
 MAX. NUMB. OF EXPAN. VEC   =    30
 MAX. NUMB. IMPROVED STATES =     5
 MAX. NUMB. OF ITERATIONS   =   100
 CONVERGENCE CRITERION      =    1.0E-06

 CHOOSING OUT OF MEMORY STORAGE OF HAMILTONIAN,
 AND IN MEMORY STORAGE OF TRIAL VECTORS.

 NUMBER OF WORDS AVAILABLE =  200000000
 NUMBER OF WORDS USED      =   16567402
 ENERGY MATRIX BUFFER SIZE =      10000

 ITER. NO.JUST IMPROVED    ENERGY AND STATE
   0  11(MAX.TOL.STATE)  -1133.392451627  1  -1133.135971265  2  -1133.099047098  3  -1133.028042259  4  -1133.026565348  5

   1  10  0.47890528  7  -1133.508698542  1  -1133.279006245  2  -1133.208255509  3  -1133.151543164  4  -1133.145514584  5

   2   9  0.26088802  8  -1133.546324855  1  -1133.341856114  2  -1133.245027967  3  -1133.202194529  4  -1133.187970242  5

   3   8  0.99821459  6  -1133.551781521  1  -1133.351013595  2  -1133.251297144  3  -1133.216056303  4  -1133.197824094  5

   4   7  0.64637452  6  -1133.553087951  1  -1133.353565377  2  -1133.254982783  3  -1133.234384633  4  -1133.204788190  5

   5   6  0.12186889  4  -1133.553227874  1  -1133.353928670  2  -1133.256558199  3  -1133.246686366  4  -1133.208018895  5

   6   5  0.06720715  4  -1133.553244926  1  -1133.353994294  2  -1133.257244419  3  -1133.251317535  4  -1133.209902787  5

   7   5  0.11183014  5  -1133.553250377  1  -1133.354027426  2  -1133.258072721  3  -1133.254634165  4  -1133.213284623  5

   8   5  0.14598110  5  -1133.553251302  1  -1133.354032501  2  -1133.258974820  3  -1133.256567877  4  -1133.220163188  5

   9   5  0.10681461  5  -1133.553251502  1  -1133.354037544  2  -1133.260141560  3  -1133.257888694  4  -1133.228381046  5

  10   5  0.03651163  5  -1133.553251527  1  -1133.354041936  2  -1133.260419560  3  -1133.258158113  4  -1133.230079279  5

  11   5  0.02054321  5  -1133.553251530  1  -1133.354042916  2  -1133.260505112  3  -1133.258210296  4  -1133.230521163  5

  12   5  0.02434822  5  -1133.553251531  1  -1133.354043203  2  -1133.260578464  3  -1133.258237247  4  -1133.230835705  5

  13   5  0.01446433  5  -1133.553251531  1  -1133.354043461  2  -1133.260620334  3  -1133.258247300  4  -1133.230994963  5

  14   5  0.01467017  5  -1133.553251531  1  -1133.354043663  2  -1133.260651981  3  -1133.258254178  4  -1133.231110785  5

  15   5  0.00947205  5  -1133.553251531  1  -1133.354043728  2  -1133.260668257  3  -1133.258257517  4  -1133.231170371  5

  16   5  0.00520092  5  -1133.553251531  1  -1133.354043742  2  -1133.260674462  3  -1133.258258695  4  -1133.231196851  5

  17   4  0.00337007  5  -1133.553251531  1  -1133.354043746  2  -1133.260676789  3  -1133.258259113  4  -1133.231207272  5

  18   4  0.00952444  5  -1133.553251531  1  -1133.354043750  2  -1133.260680850  3  -1133.258259753  4  -1133.231224936  5

  19   4  0.00288131  5  -1133.553251531  1  -1133.354043750  2  -1133.260682498  3  -1133.258260028  4  -1133.231231457  5

  20   4  0.00465454  5  -1133.553251531  1  -1133.354043750  2  -1133.260683785  3  -1133.258260271  4  -1133.231240065  5

  21   4  0.00409203  5  -1133.553251531  1  -1133.354043751  2  -1133.260684635  3  -1133.258260384  4  -1133.231247998  5

  22   4  0.00291886  5  -1133.553251531  1  -1133.354043751  2  -1133.260685053  3  -1133.258260418  4  -1133.231254668  5

  23   4  0.00118993  5  -1133.553251531  1  -1133.354043751  2  -1133.260685135  3  -1133.258260424  4  -1133.231256259  5

  24   4  0.00153106  5  -1133.553251531  1  -1133.354043751  2  -1133.260685193  3  -1133.258260428  4  -1133.231257539  5

  25   4  0.00093606  5  -1133.553251531  1  -1133.354043751  2  -1133.260685221  3  -1133.258260429  4  -1133.231258211  5

  26   3  0.00048704  5  -1133.553251531  1  -1133.354043751  2  -1133.260685230  3  -1133.258260430  4  -1133.231258497  5

  27   3  0.00082228  5  -1133.553251531  1  -1133.354043751  2  -1133.260685239  3  -1133.258260430  4  -1133.231258789  5

  28   3  0.00061039  5  -1133.553251531  1  -1133.354043751  2  -1133.260685244  3  -1133.258260430  4  -1133.231259018  5

  29   3  0.00091975  5  -1133.553251531  1  -1133.354043751  2  -1133.260685250  3  -1133.258260430  4  -1133.231259389  5

  30   3  0.00067494  5  -1133.553251531  1  -1133.354043751  2  -1133.260685254  3  -1133.258260431  4  -1133.231259731  5

  31   3  0.00050777  5  -1133.553251531  1  -1133.354043751  2  -1133.260685256  3  -1133.258260431  4  -1133.231259965  5

  32   3  0.00061778  5  -1133.553251531  1  -1133.354043751  2  -1133.260685256  3  -1133.258260431  4  -1133.231260129  5

  33   3  0.00051169  5  -1133.553251531  1  -1133.354043751  2  -1133.260685256  3  -1133.258260431  4  -1133.231260306  5

  34   3  0.00025693  5  -1133.553251531  1  -1133.354043751  2  -1133.260685257  3  -1133.258260431  4  -1133.231260373  5

  35   3  0.00030020  5  -1133.553251531  1  -1133.354043751  2  -1133.260685257  3  -1133.258260431  4  -1133.231260424  5

  36   3  0.00023219  5  -1133.553251531  1  -1133.354043751  2  -1133.260685257  3  -1133.258260431  4  -1133.231260461  5

  37   3  0.00019777  5  -1133.553251531  1  -1133.354043751  2  -1133.260685257  3  -1133.258260431  4  -1133.231260490  5

  38   2  0.00010198  5  -1133.553251531  1  -1133.354043751  2  -1133.260685257  3  -1133.258260431  4  -1133.231260501  5

  39   2  0.00011507  5  -1133.553251531  1  -1133.354043751  2  -1133.260685257  3  -1133.258260431  4  -1133.231260509  5

  40   2  0.00011693  5  -1133.553251531  1  -1133.354043751  2  -1133.260685257  3  -1133.258260431  4  -1133.231260515  5

  41   2  0.00011118  5  -1133.553251531  1  -1133.354043751  2  -1133.260685257  3  -1133.258260431  4  -1133.231260522  5

  42   2  0.00019413  5  -1133.553251531  1  -1133.354043751  2  -1133.260685257  3  -1133.258260431  4  -1133.231260538  5

  43   2  0.00010856  5  -1133.553251531  1  -1133.354043751  2  -1133.260685257  3  -1133.258260431  4  -1133.231260548  5

  44   2  0.00009635  5  -1133.553251531  1  -1133.354043751  2  -1133.260685257  3  -1133.258260431  4  -1133.231260554  5

  45   2  0.00010525  5  -1133.553251531  1  -1133.354043751  2  -1133.260685257  3  -1133.258260431  4  -1133.231260561  5

  46   1  0.00006207  5  -1133.553251531  1  -1133.354043751  2  -1133.260685257  3  -1133.258260431  4  -1133.231260564  5

  47   1  0.00007994  5  -1133.553251531  1  -1133.354043751  2  -1133.260685257  3  -1133.258260431  4  -1133.231260567  5

  48   1  0.00006302  5  -1133.553251531  1  -1133.354043751  2  -1133.260685257  3  -1133.258260431  4  -1133.231260570  5

  49   1  0.00005561  5  -1133.553251531  1  -1133.354043751  2  -1133.260685257  3  -1133.258260431  4  -1133.231260572  5

  50   1  0.00003030  5  -1133.553251531  1  -1133.354043751  2  -1133.260685257  3  -1133.258260431  4  -1133.231260573  5

  51   1  0.00002214  5  -1133.553251531  1  -1133.354043751  2  -1133.260685257  3  -1133.258260431  4  -1133.231260573  5

  52   1  0.00001790  5  -1133.553251531  1  -1133.354043751  2  -1133.260685257  3  -1133.258260431  4  -1133.231260573  5

  53   1  0.00001274  5  -1133.553251531  1  -1133.354043751  2  -1133.260685257  3  -1133.258260431  4  -1133.231260573  5

  54   1  0.00001083  5  -1133.553251531  1  -1133.354043751  2  -1133.260685257  3  -1133.258260431  4  -1133.231260574  5

  55   1  0.00000402  5  -1133.553251531  1  -1133.354043751  2  -1133.260685257  3  -1133.258260431  4  -1133.231260574  5

  56   1  0.00000255  5  -1133.553251531  1  -1133.354043751  2  -1133.260685257  3  -1133.258260431  4  -1133.231260574  5

  57   1  0.00000992  5  -1133.553251531  1  -1133.354043751  2  -1133.260685257  3  -1133.258260431  4  -1133.231260574  5

  58   1  0.00003138  5  -1133.553251531  1  -1133.354043751  2  -1133.260685257  3  -1133.258260431  4  -1133.231260574  5

  59   1  0.00004417  5  -1133.553251531  1  -1133.354043751  2  -1133.260685257  3  -1133.258260431  4  -1133.231260575  5

  60   1  0.00005047  5  -1133.553251531  1  -1133.354043751  2  -1133.260685257  3  -1133.258260431  4  -1133.231260577  5

  61   1  0.00003230  5  -1133.553251531  1  -1133.354043751  2  -1133.260685257  3  -1133.258260431  4  -1133.231260578  5

  62   1  0.00002475  5  -1133.553251531  1  -1133.354043751  2  -1133.260685257  3  -1133.258260431  4  -1133.231260579  5

  63   1  0.00001704  5  -1133.553251531  1  -1133.354043751  2  -1133.260685257  3  -1133.258260431  4  -1133.231260579  5

  64   1  0.00001410  5  -1133.553251531  1  -1133.354043751  2  -1133.260685257  3  -1133.258260431  4  -1133.231260579  5

  65   1  0.00001280  5  -1133.553251531  1  -1133.354043751  2  -1133.260685257  3  -1133.258260431  4  -1133.231260579  5

  66   1  0.00000842  5  -1133.553251531  1  -1133.354043751  2  -1133.260685257  3  -1133.258260431  4  -1133.231260579  5

  67   1  0.00000698  5  -1133.553251531  1  -1133.354043751  2  -1133.260685257  3  -1133.258260431  4  -1133.231260579  5

  68   1  0.00000574  5  -1133.553251531  1  -1133.354043751  2  -1133.260685257  3  -1133.258260431  4  -1133.231260579  5

  69   1  0.00000490  5  -1133.553251531  1  -1133.354043751  2  -1133.260685257  3  -1133.258260431  4  -1133.231260579  5

  70   1  0.00000337  5  -1133.553251531  1  -1133.354043751  2  -1133.260685257  3  -1133.258260431  4  -1133.231260579  5

  71   1  0.00000204  5  -1133.553251531  1  -1133.354043751  2  -1133.260685257  3  -1133.258260431  4  -1133.231260579  5

  72   1  0.00000295  5  -1133.553251531  1  -1133.354043751  2  -1133.260685257  3  -1133.258260431  4  -1133.231260579  5

  73   1  0.00000207  5  -1133.553251531  1  -1133.354043751  2  -1133.260685257  3  -1133.258260431  4  -1133.231260579  5

  74   1  0.00000221  5  -1133.553251531  1  -1133.354043751  2  -1133.260685257  3  -1133.258260431  4  -1133.231260579  5

  75   1  0.00000199  5  -1133.553251531  1  -1133.354043751  2  -1133.260685257  3  -1133.258260431  4  -1133.231260579  5

  76   1  0.00000163  5  -1133.553251531  1  -1133.354043751  2  -1133.260685257  3  -1133.258260431  4  -1133.231260579  5

  77   1  0.00000122  5  -1133.553251531  1  -1133.354043751  2  -1133.260685257  3  -1133.258260431  4  -1133.231260579  5

  78   1  0.00000110  5  -1133.553251531  1  -1133.354043751  2  -1133.260685257  3  -1133.258260431  4  -1133.231260579  5

  79   1  0.00000079  5  -1133.553251531  1  -1133.354043751  2  -1133.260685257  3  -1133.258260431  4  -1133.231260579  5


 STATE #    1  ENERGY =   -1133.553251531

      CSF      COEF    OCCUPANCY (IGNORING CORE)
      ---      ----    --------- --------- -----
        1    0.907072  222222000000
       28   -0.063420  022222000002
     5053   -0.069261  221122001100
     8580   -0.074488  222022002000
    16389    0.098016  221212010100
    19909   -0.051131  222211011000
    19914    0.087232  222112011000
    27476    0.070665  222112011000
    41587   -0.137840  222202020000
    61311    0.050990  212221100010
    74593   -0.060177  222220101000
    74595    0.114723  222121101000
    88710    0.065001  222112110000
   165529   -0.144760  222220200000
   165531    0.076263  222121200000
   165540   -0.076894  222022200000
   165547   -0.057062  202222200000

 STATE #    2  ENERGY =   -1133.354043751

      CSF      COEF    OCCUPANCY (IGNORING CORE)
      ---      ----    --------- --------- -----
     2522    0.431649  222212001000
     5042    0.061477  222211001100
     5048    0.105722  222112001100
     8577    0.075935  221212002000
    13861    0.296866  222221010000
    13863    0.496971  222122010000
    16383   -0.072771  222121010100
    16387    0.117717  222202010100
    16388   -0.065024  222112010100
    16392   -0.077785  222022010100
    27472   -0.074399  221221011000
    27477   -0.068232  221212011000
    27481   -0.116030  221122011000
    41589   -0.131134  221212020000
    46917   -0.053947  220212021000
    60986   -0.453244  222212100000
    63506   -0.057555  222211100100
    63512   -0.098801  222112100100
    74601   -0.100507  221212101000
   102026    0.052981  222120111000
   118408    0.058283  221221110000
   118417    0.105976  221122110000
   165537    0.067629  221212200000
   170821    0.091489  222210201000
   170826    0.065059  222111201000
   184934    0.095106  222120210000
   184953   -0.054249  222021210000

 STATE #    3  ENERGY =   -1133.260685257

      CSF      COEF    OCCUPANCY (IGNORING CORE)
      ---      ----    --------- --------- -----
      339   -0.112254  222122000100
     2521    0.179047  222221001000
     2523   -0.230481  222122001000
     5052   -0.051497  222022001100
     8569    0.090349  222220002000
     8571    0.064279  222121002000
     8580   -0.098660  222022002000
    13861   -0.062299  222221010000
    13862    0.149548  222212010000
    13863    0.149350  222122010000
    27470   -0.079134  222211011000
    60985   -0.157711  222221100000
    60986    0.145143  222212100000
    60987    0.462018  222122100000
    60989    0.082609  212222100000
    61995    0.056049  221221100100
    63508    0.079144  221221100100
    63517   -0.069637  221122100100
    67034    0.228319  222121101000
    74593    0.167295  222220101000
    74595    0.116804  222121101000
    74604   -0.115689  222022101000
    88705   -0.135147  222211110000
    88706   -0.056988  222121110000
    88710   -0.066072  222112110000
   118405   -0.063702  222220110000
   118406   -0.193207  222211110000
   118411    0.061424  222202110000
   118412    0.179814  222112110000
   137839   -0.055596  222102120000
   165529   -0.223774  222220200000
   165530   -0.083064  222211200000
   165531   -0.228020  222121200000
   165533   -0.087675  212221200000
   165536    0.053543  222112200000
   165540    0.200160  222022200000
   165541    0.089894  221122200000
   165542    0.058952  212122200000

 STATE #    4  ENERGY =   -1133.258260431

      CSF      COEF    OCCUPANCY (IGNORING CORE)
      ---      ----    --------- --------- -----
      337   -0.124520  222221000100
      339   -0.129394  222122000100
     2521   -0.254503  222221001000
     2523   -0.165545  222122001000
     2524    0.150640  221222001000
     8569   -0.064834  222220002000
     8571   -0.053059  222121002000
    13862    0.244165  222212010000
    27476   -0.098415  222112011000
    60985    0.487022  222221100000
    60987    0.445539  222122100000
    60988   -0.090104  221222100000
    60989    0.078555  212222100000
    63508   -0.065865  221221100100
    67034   -0.133056  222121101000
    74593   -0.071918  222220101000
    74595   -0.060988  222121101000
    74604    0.136531  222022101000
    88705    0.055175  222211110000
   118406    0.159799  222211110000
   118412    0.053399  222112110000
   118413   -0.082065  221212110000
   137824    0.061694  222201120000
   165529    0.207004  222220200000
   165540   -0.165056  222022200000
   165542   -0.072605  212122200000
   170822   -0.087122  222120201000
   170841    0.060556  222021201000

 STATE #    5  ENERGY =   -1133.231260579

      CSF      COEF    OCCUPANCY (IGNORING CORE)
      ---      ----    --------- --------- -----
      338    0.293701  222212000100
      339    0.075089  222122000100
     1351    0.053757  222202000200
     1352    0.062047  222112000200
     2521   -0.052197  222221001000
     2522   -0.081965  222212001000
     2523   -0.135519  222122001000
     2524   -0.116647  221222001000
     8571    0.072477  222121002000
     8580    0.051034  222022002000
    13861   -0.120242  222221010000
    13863   -0.170731  222122010000
    13864    0.432316  221222010000
    14875    0.057001  221212010100
    14878    0.051845  221122010100
    22795   -0.057229  222102011100
    27475    0.224991  222202011000
    27484   -0.077226  220222011000
    41582   -0.150143  222211020000
    41587   -0.171527  222202020000
    41588   -0.267352  222112020000
    41596    0.072167  220222020000
    46914   -0.057658  221112021000
    60985    0.071736  222221100000
    60986   -0.236313  222212100000
    60987    0.147708  222122100000
    60988    0.207254  221222100000
    60989    0.068515  212222100000
    74595   -0.077364  222121101000
    74604   -0.117133  222022101000
    91591   -0.050055  222102110100
   118411   -0.232821  222202110000
   118416    0.067602  222022110000
   118420    0.081847  220222110000
   137850   -0.054657  221112120000
   165536    0.069715  222112200000
   165540    0.092075  222022200000
   184935    0.064206  221220210000
 ...... END OF CI-MATRIX DIAGONALIZATION ......
 CPU     0: STEP CPU TIME=   512.08 TOTAL CPU TIME=      652.6 (   10.9 MIN)
 TOTAL WALL CLOCK TIME=      781.4 SECONDS, CPU UTILIZATION IS  83.51%

          -------------------------------------
          2-PARTICLE DENSITY MATRIX CALCULATION
          -------------------------------------
 2 BODY DENSITY IS AN AVERAGE OF  5 STATE(S).
   STATE    WEIGHT          ENERGY
     1    0.200000    -1133.5532515313
     2    0.200000    -1133.3540437508
     3    0.200000    -1133.2606852567
     4    0.200000    -1133.2582604307
     5    0.200000    -1133.2312605793
    294583221 -DM2- LOOPS WERE GENERATED
    294583221 WERE CREATED BY THE LOOP-DRIVEN ALGORITHM
            0 WERE CREATED IMPLICITLY
          1 RECORDS OF LENGTH 50000 WRITTEN TO FILE 15
 ...... END OF 2-PARTICLE DENSITY MATRIX CALCULATION ......
 CPU     0: STEP CPU TIME=    45.59 TOTAL CPU TIME=      698.2 (   11.6 MIN)
 TOTAL WALL CLOCK TIME=      828.8 SECONDS, CPU UTILIZATION IS  84.24%

          ----------------------------------
          2-PARTICLE DENSITY MATRIX LABELING
          ----------------------------------
      99124 WORDS NEEDED TO LABEL DM2 MATRIX
          1 RECORDS OF LENGTH 50000  READ FROM FILE 15
          1 RECORDS OF LENGTH 15000 WRITTEN TO FILE 16
 ...... END OF 2-PARTICLE DENSITY MATRIX LABELING ......
 CPU     0: STEP CPU TIME=     0.65 TOTAL CPU TIME=      698.8 (   11.6 MIN)
 TOTAL WALL CLOCK TIME=      829.4 SECONDS, CPU UTILIZATION IS  84.25%

          --------------
          -DM2- ORDERING
          --------------
      33160 WORDS NEEDED ( 200000000 AVAILABLE) TO ORDER DM2 IN MEMORY
 CHOOSING IN MEMORY ORDERING...
                               1 RECORDS OF LENGTH 15000  READ FROM FILE 16
       3081 DM2 VALUES IN      1 RECORDS OF LENGTH 15000 WRITTEN TO FILE 15
 ...... END OF -DM2- ORDERING ...... 
 CPU     0: STEP CPU TIME=     0.02 TOTAL CPU TIME=      698.8 (   11.6 MIN)
 TOTAL WALL CLOCK TIME=      829.5 SECONDS, CPU UTILIZATION IS  84.25%

     --------------------------------     -----------------------------
     MCHF NEWTON-RAPHSON OPTIMIZATION     CODE WRITTEN BY MICHEL DUPUIS
     --------------------------------     -----------------------------
     PARALLEL VERSION WRITTEN BY G. FLETCHER (ELORET)
     NASA ADVANCED SUPERCOMPUTING DIVISION, AMES RESEARCH CENTER

 NUMBER OF INDEPENDENT ORBITAL ROTATION PARAMETERS = 14353
 ..... DONE SOLVING NEWTON-RAPHSON EQUATIONS .....
 CPU     0: STEP CPU TIME=    35.75 TOTAL CPU TIME=      734.6 (   12.2 MIN)
 TOTAL WALL CLOCK TIME=      910.0 SECONDS, CPU UTILIZATION IS  80.72%
 ..... DONE WITH NTN-RPH ORBITAL ROTATIONS ..... 
 CPU     0: STEP CPU TIME=     0.06 TOTAL CPU TIME=      734.6 (   12.2 MIN)
 TOTAL WALL CLOCK TIME=      910.1 SECONDS, CPU UTILIZATION IS  80.72%
 MAXIMUM MEMORY USED BY NTN-RPH CODE WAS   1648907 WORDS.

 ITER     TOTAL ENERGY      DEL(E)  LAGRANGIAN ASYMMETRY   SQCDF  MICIT   DAMP
   1    -1133.331500310 -0.331500310  0.045636  133   66 5.139E-02  1   0.0000
   2    -1133.354243904 -0.022743594  0.006709  152   66 2.855E-03  1   0.0000
   3    -1133.355098742 -0.000854838  0.002517  152   66 3.339E-04  1   0.0000
   4    -1133.355244275 -0.000145533  0.001091  152   66 1.285E-04  1   0.0000
   5    -1133.355284468 -0.000040194  0.000615  152   66 5.460E-05  1   0.0000
   6    -1133.355297235 -0.000012767  0.000332  152   66 2.746E-05  1   0.0000
   7    -1133.355301202 -0.000003967  0.000179  152   66 1.586E-05  1   0.0000
   8    -1133.355302488 -0.000001286  0.000095  152   66 1.102E-05  1   0.0000
   9    -1133.355302994 -0.000000506  0.000050  152   66 8.742E-06  1   0.0000
  10    -1133.355303271 -0.000000277  0.000032   95   55 7.455E-06  1   0.0000
  11    -1133.355303467 -0.000000196  0.000025   95   55 6.923E-06  1   0.0000
  12    -1133.355303633 -0.000000166  0.000018  175   61 5.713E-06  1   0.0000
  13    -1133.355303768 -0.000000135  0.000020  175   61 5.224E-06  1   0.0000
  14    -1133.355303891 -0.000000123  0.000017  175   61 4.242E-06  1   0.0000
  15    -1133.355303991 -0.000000100  0.000020  175   61 4.315E-06  1   0.0000
  16    -1133.355304090 -0.000000099  0.000012  133   70 3.383E-06  1   0.0000
  17    -1133.355304168 -0.000000078  0.000015  175   61 3.097E-06  1   0.0000
  18    -1133.355304240 -0.000000071  0.000012  175   61 2.550E-06  1   0.0000
  19    -1133.355304299 -0.000000059  0.000010  133   70 2.131E-06  1   0.0000
  20    -1133.355304299  0.000000000  0.000010  133   70 2.172E-06  1   0.0000

          --------------------
          LAGRANGIAN CONVERGED
          --------------------

 FINAL MCSCF ENERGY IS    -1133.3553042993 AFTER  20 ITERATIONS

 -MCCI- BASED ON OPTIMIZED ORBITALS
 ----------------------------------

 PLEASE NOTE: IF THE ACTIVE ORBITALS ARE CANONICALIZED BELOW,
 THE FOLLOWING CI EXPANSION COEFFICIENTS AND THE DENSITY DO NOT
 CORRESPOND TO THE PRINTED ORBITALS.  THE PRINTED EXPANSIONS MATCH
 THE ORBITALS USED DURING THE LAST ITERATION.  IF YOU WISH TO SEE
 CI EXPANSIONS BASED ON THE CANONICAL (OR NATURAL) ORBITALS, YOU
 MUST RUN A CI CALCULATION WITH THAT ORBITAL CHOICE READ IN $VEC.

 STATE #    1  ENERGY =   -1133.543398443

      CSF      COEF    OCCUPANCY (IGNORING CORE)
      ---      ----    --------- --------- -----
        1    0.903894  222222000000
       28   -0.063812  022222000002
     5053   -0.066799  221122001100
     8580   -0.074414  222022002000
    16389    0.097285  221212010100
    19909   -0.052157  222211011000
    19914    0.089236  222112011000
    27476    0.069864  222112011000
    41587   -0.139157  222202020000
    74593   -0.063366  222220101000
    74595    0.117386  222121101000
    88710    0.069424  222112110000
   165529   -0.149163  222220200000
   165531    0.077970  222121200000
   165540   -0.082451  222022200000
   165547   -0.059669  202222200000

 STATE #    2  ENERGY =   -1133.367234765

      CSF      COEF    OCCUPANCY (IGNORING CORE)
      ---      ----    --------- --------- -----
     2522   -0.393032  222212001000
     5042   -0.054972  222211001100
     5048   -0.095237  222112001100
     8577   -0.067229  221212002000
    13861   -0.284890  222221010000
    13863   -0.482286  222122010000
    16383    0.068308  222121010100
    16387   -0.111233  222202010100
[...]

 *** ZEROTH ORDER ENERGIES ***
   STATE        0TH ORDER
     1     -730.5085135513
     2     -730.1193920462
     3     -730.2298430749
     4     -729.9446939843
     5     -730.0125524531

 *** DIAGONAL ELEMENTS OF EFFECTIVE HAMILTONIAN ***
   STATE                  2ND ORDER
     1   E(MRMP2)=    -1135.7989313435
     2   E(MRMP2)=    -1135.6311212936
     3   E(MRMP2)=    -1135.6095483253
     4   E(MRMP2)=    -1135.5836230667
     5   E(MRMP2)=    -1135.5626134725
 THE DIAGONAL ELEMENTS ARE ALMOST THE STATE-SPECIFIC E(MRMP2) CORRECTIONS.
 HOWEVER, THEY DIFFER SLIGHTLY BECAUSE OF THE USE OF STATE-AVERAGED,
 RATHER THAN STATE-SPECIFIC CANONICAL ORBITALS.

 *** MCQDPT2 ENERGIES ***
   STATE                       1ST ORDER                       2ND ORDER
     1     E(MCSCF)=    -1133.5433984293     E(MP2)=    -1135.8191150551
     2     E(MCSCF)=    -1133.3672347535     E(MP2)=    -1135.6605558294
     3     E(MCSCF)=    -1133.3049812633     E(MP2)=    -1135.6014969560
     4     E(MCSCF)=    -1133.2989888801     E(MP2)=    -1135.5747559528
     5     E(MCSCF)=    -1133.2619181177     E(MP2)=    -1135.5299137084

 THE UNPERTURBED CAS-CI STATE(S) WERE PRINTED ABOVE

 *** PERTURBED MCQDPT STATES ***
 (FROM DIAGONALIZATION OF 2ND ORDER EFFECTIVE HAMILTONIAN)

 THE ROTATION FROM CAS-CI STATES (ROWS) TO QDPT STATES (COLUMNS) IS

             1           2           3           4           5

    1    0.9528112  -0.1223141   0.2074942   0.1785770   0.0473976
    2   -0.0739477  -0.7984269  -0.4303002   0.2624815   0.3209229
    3   -0.2909556  -0.1089820   0.7319058   0.5832494   0.1661376
    4   -0.0201415  -0.3340919   0.4483909  -0.7409391   0.3713917
    5    0.0402713   0.4733491  -0.1872094   0.1002151   0.8539487

 STATE #    1  ENERGY =   -1135.819115055

      CSF      COEF    OCCUPANCY (IGNORING CORE)
      ---      ----    --------- --------- -----
        1    0.897625  222222000000
        2   -0.164024  22222+-00000
        8   -0.126508  222220200000
       10    0.076597  222220+0-000
       19   -0.053907  222220002000
       29   -0.069721  2222+2-00000
       37    0.092310  2222++--0000
       48    0.066083  2222++0--000
      147   -0.127373  222202020000
     1345   -0.090964  222022200000
     1347   -0.109519  222022+0-000
     1356   -0.062525  222022002000
     2548   -0.053515  22+22-00+-00
     2634    0.070955  22+2-2+-0000
     2647    0.088471  22+2-20+0-00
   165547   -0.063606  022222000020

 STATE #    2  ENERGY =   -1135.660555829

      CSF      COEF    OCCUPANCY (IGNORING CORE)
      ---      ----    --------- --------- -----
        1   -0.079573  222222000000
        2   -0.105780  22222+-00000
        3    0.222509  22222+0-0000
       29   -0.749986  2222+2-00000
       31    0.074641  2222+200-000
       32   -0.078767  2222+2000-00
       35   -0.088057  2222+-200000
       38   -0.096463  2222+-+0-000
       40   -0.132149  2222+-+00-00
       46    0.128177  2222+-020000
      142    0.172780  222202+-0000
      149    0.076224  2222020+0-00
      337   -0.078267  222+22-00000
      343    0.126470  222+2-200000
      347   -0.051467  222+2+-0-000
      450    0.083426  222+-2+-0000
      451    0.066467  222++2--0000
      461    0.066158  222+-20+-000
     1542    0.087175  2220+220-000
     1555    0.062927  2220+2-02000
     2521    0.071942  22+222-00000
     2522   -0.180482  22+2220-0000
     2528    0.113640  22+22-+-0000
     2529   -0.052445  22+22+--0000
     2633    0.136893  22+2-2200000
     2636   -0.065862  22+2-2+0-000
     2644   -0.098281  22+2-2020000
     3529   -0.061768  22+-22200000
     8570   -0.069636  220222+-0000
     8770    0.063114  2202+2-20000
   165751    0.052853  0222+2-00020

 STATE #    3  ENERGY =   -1135.601496956

      CSF      COEF    OCCUPANCY (IGNORING CORE)
      ---      ----    --------- --------- -----
        1    0.090813  222222000000
        2    0.640076  22222+-00000
        3    0.371863  22222+0-0000
        8    0.117196  222220200000
       16   -0.066004  2222200+0-00
       29   -0.072215  2222+2-00000
       30    0.168327  2222+20-0000
       31    0.152633  2222+200-000
       36   -0.127775  2222+-+-0000
       46   -0.062964  2222+-020000
      142   -0.058099  222202+-0000
      167   -0.077703  22220+-20000
      337    0.224157  222+22-00000
      339   -0.059949  222+2200-000
      343   -0.184336  222+2-200000
      347    0.083223  222+2+-0-000
      363    0.065834  222+2-002000
      449   -0.064517  222+-2200000
      450   -0.096377  222+-2+-0000
      451   -0.063937  222++2--0000
      461   -0.061931  222+-20+-000
     1345   -0.116984  222022200000
     1347   -0.089324  222022+0-000
     1367   -0.069203  22202+20-000
     1380   -0.056734  22202+-02000
     2523   -0.080621  22+22200-000
     2528    0.080796  22+22-+-0000
     2532    0.051658  22+22-+00-00
     2539   -0.067874  22+22-0+-000
     2634   -0.051694  22+2-2+-0000
     2644   -0.066847  22+2-2020000
     2686    0.055137  22+2-+-+0-00

 STATE #    4  ENERGY =   -1135.574755953

      CSF      COEF    OCCUPANCY (IGNORING CORE)
      ---      ----    --------- --------- -----
        1    0.077981  222222000000
        2    0.474569  22222+-00000
        3   -0.272481  22222+0-0000
        5    0.055303  22222+000-00
        8    0.093295  222220200000
       16    0.050882  2222200+0-00
       30    0.102556  2222+20-0000
       31   -0.122817  2222+200-000
       35    0.085487  2222+-200000
       36   -0.116195  2222+-+-0000
       39   -0.053765  2222++-0-000
       55   -0.051173  2222+-002000
      142    0.066154  222202+-0000
      167   -0.057056  22220+-20000
      337   -0.402589  222+22-00000
      339    0.111239  222+2200-000
      343    0.379055  222+2-200000
      347   -0.172428  222+2+-0-000
      348   -0.058057  222+2-+00-00
      363   -0.139938  222+2-002000
      364    0.059313  222+2-00+-00
      450    0.157532  222+-2+-0000
      451    0.112515  222++2--0000
      461    0.097330  222+-20+-000
      860   -0.059907  222+02-20000
      925    0.056253  222+0-220000
     1345   -0.077196  222022200000
     1347   -0.065072  222022+0-000
     2523   -0.066174  22+22200-000
     2539    0.051544  22+22-0+-000
     3529   -0.086239  22+-22200000
     3532   -0.065152  22+-22+0-000
     3534   -0.052378  22+-22+00-00

 STATE #    5  ENERGY =   -1135.529913708

      CSF      COEF    OCCUPANCY (IGNORING CORE)
      ---      ----    --------- --------- -----
        2    0.123135  22222+-00000
        3   -0.460437  22222+0-0000
        4    0.084880  22222+00-000
        5    0.077453  22222+000-00
        8    0.110307  222220200000
       10   -0.051147  222220+0-000
       14   -0.050893  222220020000
       16    0.080483  2222200+0-00
       29   -0.128713  2222+2-00000
       31   -0.285619  2222+200-000
       32   -0.122022  2222+2000-00
       35   -0.051151  2222+-200000
       36   -0.095106  2222+-+-0000
       46    0.231138  2222+-020000
       56   -0.094083  2222+-00+-00
      142    0.167107  222202+-0000
      148   -0.134660  2222020+-000
      337    0.289198  222+22-00000
      339   -0.086273  222+2200-000
      343   -0.302749  222+2-200000
      347    0.149520  222+2+-0-000
      363    0.131472  222+2-002000
      450   -0.055344  222+-2+-0000
     1366   -0.080807  22202+2-0000
     1373    0.064007  22202++--000
     2521    0.127860  22+222-00000
     2522   -0.232599  22+2220-0000
     2528   -0.070120  22+22-+-0000
     2529   -0.069526  22+22+--0000
     2539    0.097837  22+22-0+-000
     8570   -0.074793  220222+-0000
 ...... END OF MC-QDPT2 (MR-MP2) CALCULATION ......

 ..... DONE WITH MP2 ENERGY .....
 CPU     0: STEP CPU TIME= 89212.56 TOTAL CPU TIME=    97906.3 ( 1631.8 MIN)
 TOTAL WALL CLOCK TIME=   113506.3 SECONDS, CPU UTILIZATION IS  86.26%
             199966880  WORDS OF DYNAMIC MEMORY USED
 EXECUTION OF GAMESS TERMINATED NORMALLY Thu Sep 29 19:30:12 2016
 DDI: 799656920 bytes (762.6 MB / 95 MWords) used by master data server.

 ----------------------------------------
 CPU timing information for all processes
 ========================================
 0: 97130.822 + 775.648 = 97906.470
 1: 97024.155 + 799.473 = 97823.629
 2: 96443.235 + 765.535 = 97208.771
 3: 97484.272 + 817.391 = 98301.663
 4: 103163.803 + 40.518 = 103204.321
 5: 103116.656 + 41.562 = 103158.218
 6: 103609.575 + 44.734 = 103654.309
 7: 103223.543 + 44.654 = 103268.197
 ----------------------------------------
----- accounting info -----
Files used on the master node g4nodes3 were:
-rw-r--r-- 1 g4rosendo g4     1205633 Sep 28 11:58 /scratch/934475.1.iqtc06.q/singletminimum_casscfsingoptcontdeloc90deg2sing.F05
-rw-r--r-- 1 g4rosendo g4  4065391008 Sep 28 15:09 /scratch/934475.1.iqtc06.q/singletminimum_casscfsingoptcontdeloc90deg2sing.F08
-rw-r--r-- 1 g4rosendo g4  4065391008 Sep 28 15:09 /scratch/934475.1.iqtc06.q/singletminimum_casscfsingoptcontdeloc90deg2sing.F08.001
-rw-r--r-- 1 g4rosendo g4  4065391008 Sep 28 15:09 /scratch/934475.1.iqtc06.q/singletminimum_casscfsingoptcontdeloc90deg2sing.F08.002
-rw-r--r-- 1 g4rosendo g4  4065391008 Sep 28 15:08 /scratch/934475.1.iqtc06.q/singletminimum_casscfsingoptcontdeloc90deg2sing.F08.003
-rw-r--r-- 1 g4rosendo g4    10143200 Sep 29 19:30 /scratch/934475.1.iqtc06.q/singletminimum_casscfsingoptcontdeloc90deg2sing.F10
-rw-r--r-- 1 g4rosendo g4     2103752 Sep 28 11:58 /scratch/934475.1.iqtc06.q/singletminimum_casscfsingoptcontdeloc90deg2sing.F11
-rw-r--r-- 1 g4rosendo g4     2103752 Sep 28 11:58 /scratch/934475.1.iqtc06.q/singletminimum_casscfsingoptcontdeloc90deg2sing.F11.001
-rw-r--r-- 1 g4rosendo g4     2103752 Sep 28 11:58 /scratch/934475.1.iqtc06.q/singletminimum_casscfsingoptcontdeloc90deg2sing.F11.002
-rw-r--r-- 1 g4rosendo g4     2103752 Sep 28 11:58 /scratch/934475.1.iqtc06.q/singletminimum_casscfsingoptcontdeloc90deg2sing.F11.003
-rw-r--r-- 1 g4rosendo g4     9060704 Sep 28 15:06 /scratch/934475.1.iqtc06.q/singletminimum_casscfsingoptcontdeloc90deg2sing.F12
-rw-r--r-- 1 g4rosendo g4     9060704 Sep 28 15:06 /scratch/934475.1.iqtc06.q/singletminimum_casscfsingoptcontdeloc90deg2sing.F12.001
-rw-r--r-- 1 g4rosendo g4     9060704 Sep 28 15:06 /scratch/934475.1.iqtc06.q/singletminimum_casscfsingoptcontdeloc90deg2sing.F12.002
-rw-r--r-- 1 g4rosendo g4     9060704 Sep 28 15:06 /scratch/934475.1.iqtc06.q/singletminimum_casscfsingoptcontdeloc90deg2sing.F12.003
-rw-r--r-- 1 g4rosendo g4      400008 Sep 28 15:04 /scratch/934475.1.iqtc06.q/singletminimum_casscfsingoptcontdeloc90deg2sing.F14
-rw-r--r-- 1 g4rosendo g4      400008 Sep 28 15:04 /scratch/934475.1.iqtc06.q/singletminimum_casscfsingoptcontdeloc90deg2sing.F14.001
-rw-r--r-- 1 g4rosendo g4      400008 Sep 28 15:04 /scratch/934475.1.iqtc06.q/singletminimum_casscfsingoptcontdeloc90deg2sing.F14.002
-rw-r--r-- 1 g4rosendo g4      400008 Sep 28 15:04 /scratch/934475.1.iqtc06.q/singletminimum_casscfsingoptcontdeloc90deg2sing.F14.003
-rw-r--r-- 1 g4rosendo g4      260472 Sep 28 15:07 /scratch/934475.1.iqtc06.q/singletminimum_casscfsingoptcontdeloc90deg2sing.F15
-rw-r--r-- 1 g4rosendo g4      260472 Sep 28 15:07 /scratch/934475.1.iqtc06.q/singletminimum_casscfsingoptcontdeloc90deg2sing.F15.001
-rw-r--r-- 1 g4rosendo g4      260472 Sep 28 15:07 /scratch/934475.1.iqtc06.q/singletminimum_casscfsingoptcontdeloc90deg2sing.F15.002
-rw-r--r-- 1 g4rosendo g4      260472 Sep 28 15:07 /scratch/934475.1.iqtc06.q/singletminimum_casscfsingoptcontdeloc90deg2sing.F15.003
-rw-r--r-- 1 g4rosendo g4      260472 Sep 28 15:07 /scratch/934475.1.iqtc06.q/singletminimum_casscfsingoptcontdeloc90deg2sing.F16
-rw-r--r-- 1 g4rosendo g4      260472 Sep 28 15:07 /scratch/934475.1.iqtc06.q/singletminimum_casscfsingoptcontdeloc90deg2sing.F16.001
-rw-r--r-- 1 g4rosendo g4      260472 Sep 28 15:07 /scratch/934475.1.iqtc06.q/singletminimum_casscfsingoptcontdeloc90deg2sing.F16.002
-rw-r--r-- 1 g4rosendo g4      260472 Sep 28 15:07 /scratch/934475.1.iqtc06.q/singletminimum_casscfsingoptcontdeloc90deg2sing.F16.003
-rw-r--r-- 1 g4rosendo g4    43759848 Sep 29 19:30 /scratch/934475.1.iqtc06.q/singletminimum_casscfsingoptcontdeloc90deg2sing.F50
-rw-r--r-- 1 g4rosendo g4   203676368 Sep 28 15:09 /scratch/934475.1.iqtc06.q/singletminimum_casscfsingoptcontdeloc90deg2sing.F51
-rw-r--r-- 1 g4rosendo g4   203906776 Sep 28 15:09 /scratch/934475.1.iqtc06.q/singletminimum_casscfsingoptcontdeloc90deg2sing.F51.001
-rw-r--r-- 1 g4rosendo g4   203690720 Sep 28 15:09 /scratch/934475.1.iqtc06.q/singletminimum_casscfsingoptcontdeloc90deg2sing.F51.002
-rw-r--r-- 1 g4rosendo g4   203283208 Sep 28 15:09 /scratch/934475.1.iqtc06.q/singletminimum_casscfsingoptcontdeloc90deg2sing.F51.003
-rw-r--r-- 1 g4rosendo g4   430504384 Sep 28 15:09 /scratch/934475.1.iqtc06.q/singletminimum_casscfsingoptcontdeloc90deg2sing.F52
-rw-r--r-- 1 g4rosendo g4   430504384 Sep 28 15:10 /scratch/934475.1.iqtc06.q/singletminimum_casscfsingoptcontdeloc90deg2sing.F52.001
-rw-r--r-- 1 g4rosendo g4   430504384 Sep 28 15:10 /scratch/934475.1.iqtc06.q/singletminimum_casscfsingoptcontdeloc90deg2sing.F52.002
-rw-r--r-- 1 g4rosendo g4   430504384 Sep 28 15:10 /scratch/934475.1.iqtc06.q/singletminimum_casscfsingoptcontdeloc90deg2sing.F52.003
-rw-r--r-- 1 g4rosendo g4   430504384 Sep 28 15:58 /scratch/934475.1.iqtc06.q/singletminimum_casscfsingoptcontdeloc90deg2sing.F53
-rw-r--r-- 1 g4rosendo g4   430504384 Sep 28 15:58 /scratch/934475.1.iqtc06.q/singletminimum_casscfsingoptcontdeloc90deg2sing.F53.001
-rw-r--r-- 1 g4rosendo g4   430504384 Sep 28 15:58 /scratch/934475.1.iqtc06.q/singletminimum_casscfsingoptcontdeloc90deg2sing.F53.002
-rw-r--r-- 1 g4rosendo g4   430504384 Sep 28 15:58 /scratch/934475.1.iqtc06.q/singletminimum_casscfsingoptcontdeloc90deg2sing.F53.003
-rw-r--r-- 1 g4rosendo g4   430504384 Sep 28 15:58 /scratch/934475.1.iqtc06.q/singletminimum_casscfsingoptcontdeloc90deg2sing.F54
-rw-r--r-- 1 g4rosendo g4   430504384 Sep 28 15:58 /scratch/934475.1.iqtc06.q/singletminimum_casscfsingoptcontdeloc90deg2sing.F54.001
-rw-r--r-- 1 g4rosendo g4   430504384 Sep 28 15:58 /scratch/934475.1.iqtc06.q/singletminimum_casscfsingoptcontdeloc90deg2sing.F54.002
-rw-r--r-- 1 g4rosendo g4   430504384 Sep 28 15:58 /scratch/934475.1.iqtc06.q/singletminimum_casscfsingoptcontdeloc90deg2sing.F54.003
-rw-r--r-- 1 g4rosendo g4  1270205456 Sep 28 15:10 /scratch/934475.1.iqtc06.q/singletminimum_casscfsingoptcontdeloc90deg2sing.F55
-rw-r--r-- 1 g4rosendo g4  1271616936 Sep 28 15:11 /scratch/934475.1.iqtc06.q/singletminimum_casscfsingoptcontdeloc90deg2sing.F55.001
-rw-r--r-- 1 g4rosendo g4  1272536480 Sep 28 15:11 /scratch/934475.1.iqtc06.q/singletminimum_casscfsingoptcontdeloc90deg2sing.F55.002
-rw-r--r-- 1 g4rosendo g4  1268928664 Sep 28 15:10 /scratch/934475.1.iqtc06.q/singletminimum_casscfsingoptcontdeloc90deg2sing.F55.003
-rw-r--r-- 1 g4rosendo g4  1114276672 Sep 28 15:35 /scratch/934475.1.iqtc06.q/singletminimum_casscfsingoptcontdeloc90deg2sing.F56
-rw-r--r-- 1 g4rosendo g4  1108668264 Sep 28 15:35 /scratch/934475.1.iqtc06.q/singletminimum_casscfsingoptcontdeloc90deg2sing.F56.001
-rw-r--r-- 1 g4rosendo g4  1109488128 Sep 28 15:35 /scratch/934475.1.iqtc06.q/singletminimum_casscfsingoptcontdeloc90deg2sing.F56.002
-rw-r--r-- 1 g4rosendo g4  1111902256 Sep 28 15:35 /scratch/934475.1.iqtc06.q/singletminimum_casscfsingoptcontdeloc90deg2sing.F56.003
-rw-r--r-- 1 g4rosendo g4    16239256 Sep 28 15:37 /scratch/934475.1.iqtc06.q/singletminimum_casscfsingoptcontdeloc90deg2sing.F57
-rw-r--r-- 1 g4rosendo g4    16225360 Sep 28 15:37 /scratch/934475.1.iqtc06.q/singletminimum_casscfsingoptcontdeloc90deg2sing.F57.001
-rw-r--r-- 1 g4rosendo g4    16237240 Sep 28 15:37 /scratch/934475.1.iqtc06.q/singletminimum_casscfsingoptcontdeloc90deg2sing.F57.002
-rw-r--r-- 1 g4rosendo g4    16234808 Sep 28 15:37 /scratch/934475.1.iqtc06.q/singletminimum_casscfsingoptcontdeloc90deg2sing.F57.003
-rw-r--r-- 1 g4rosendo g4    87725488 Sep 28 15:37 /scratch/934475.1.iqtc06.q/singletminimum_casscfsingoptcontdeloc90deg2sing.F58
-rw-r--r-- 1 g4rosendo g4    87726032 Sep 28 15:37 /scratch/934475.1.iqtc06.q/singletminimum_casscfsingoptcontdeloc90deg2sing.F58.001
-rw-r--r-- 1 g4rosendo g4    87726472 Sep 28 15:37 /scratch/934475.1.iqtc06.q/singletminimum_casscfsingoptcontdeloc90deg2sing.F58.002
-rw-r--r-- 1 g4rosendo g4    87701816 Sep 28 15:37 /scratch/934475.1.iqtc06.q/singletminimum_casscfsingoptcontdeloc90deg2sing.F58.003
-rw-r--r-- 1 g4rosendo g4   480045248 Sep 28 15:37 /scratch/934475.1.iqtc06.q/singletminimum_casscfsingoptcontdeloc90deg2sing.F59
-rw-r--r-- 1 g4rosendo g4   480044792 Sep 28 15:37 /scratch/934475.1.iqtc06.q/singletminimum_casscfsingoptcontdeloc90deg2sing.F59.001
-rw-r--r-- 1 g4rosendo g4   480045096 Sep 28 15:37 /scratch/934475.1.iqtc06.q/singletminimum_casscfsingoptcontdeloc90deg2sing.F59.002
-rw-r--r-- 1 g4rosendo g4   479904688 Sep 28 15:37 /scratch/934475.1.iqtc06.q/singletminimum_casscfsingoptcontdeloc90deg2sing.F59.003
-rw-r--r-- 1 g4rosendo g4   111445200 Sep 28 15:58 /scratch/934475.1.iqtc06.q/singletminimum_casscfsingoptcontdeloc90deg2sing.F60
-rw-r--r-- 1 g4rosendo g4   111445200 Sep 28 15:58 /scratch/934475.1.iqtc06.q/singletminimum_casscfsingoptcontdeloc90deg2sing.F60.001
-rw-r--r-- 1 g4rosendo g4   111445200 Sep 28 15:58 /scratch/934475.1.iqtc06.q/singletminimum_casscfsingoptcontdeloc90deg2sing.F60.002
-rw-r--r-- 1 g4rosendo g4   111445200 Sep 28 15:58 /scratch/934475.1.iqtc06.q/singletminimum_casscfsingoptcontdeloc90deg2sing.F60.003
-rw-r--r-- 1 g4rosendo g4   261076480 Sep 29 13:48 /scratch/934475.1.iqtc06.q/singletminimum_casscfsingoptcontdeloc90deg2sing.F61
-rw-r--r-- 1 g4rosendo g4   261076480 Sep 29 14:06 /scratch/934475.1.iqtc06.q/singletminimum_casscfsingoptcontdeloc90deg2sing.F61.001
-rw-r--r-- 1 g4rosendo g4   261076480 Sep 29 13:46 /scratch/934475.1.iqtc06.q/singletminimum_casscfsingoptcontdeloc90deg2sing.F61.002
-rw-r--r-- 1 g4rosendo g4   261076480 Sep 29 14:02 /scratch/934475.1.iqtc06.q/singletminimum_casscfsingoptcontdeloc90deg2sing.F61.003
-rw-r--r-- 1 g4rosendo g4 12987642592 Sep 29 15:39 /scratch/934475.1.iqtc06.q/singletminimum_casscfsingoptcontdeloc90deg2sing.F62
-rw-r--r-- 1 g4rosendo g4 12987642592 Sep 29 15:50 /scratch/934475.1.iqtc06.q/singletminimum_casscfsingoptcontdeloc90deg2sing.F62.001
-rw-r--r-- 1 g4rosendo g4 12987642592 Sep 29 15:49 /scratch/934475.1.iqtc06.q/singletminimum_casscfsingoptcontdeloc90deg2sing.F62.002
-rw-r--r-- 1 g4rosendo g4 12987642592 Sep 29 15:35 /scratch/934475.1.iqtc06.q/singletminimum_casscfsingoptcontdeloc90deg2sing.F62.003
-rw-r--r-- 1 g4rosendo g4     1203092 Sep 28 15:33 /scratch/934475.1.iqtc06.q/singletminimum_casscfsingoptcontdeloc90deg2sing.F63
-rw-r--r-- 1 g4rosendo g4          44 Sep 28 15:33 /scratch/934475.1.iqtc06.q/singletminimum_casscfsingoptcontdeloc90deg2sing.F63.001
-rw-r--r-- 1 g4rosendo g4          44 Sep 28 15:33 /scratch/934475.1.iqtc06.q/singletminimum_casscfsingoptcontdeloc90deg2sing.F63.002
-rw-r--r-- 1 g4rosendo g4          44 Sep 28 15:33 /scratch/934475.1.iqtc06.q/singletminimum_casscfsingoptcontdeloc90deg2sing.F63.003
-rw-r--r-- 1 g4rosendo g4     5913892 Sep 28 15:09 /scratch/934475.1.iqtc06.q/singletminimum_casscfsingoptcontdeloc90deg2sing.F64
-rw-r--r-- 1 g4rosendo g4     5913892 Sep 28 15:09 /scratch/934475.1.iqtc06.q/singletminimum_casscfsingoptcontdeloc90deg2sing.F64.001
-rw-r--r-- 1 g4rosendo g4     5913892 Sep 28 15:09 /scratch/934475.1.iqtc06.q/singletminimum_casscfsingoptcontdeloc90deg2sing.F64.002
-rw-r--r-- 1 g4rosendo g4     5913892 Sep 28 15:09 /scratch/934475.1.iqtc06.q/singletminimum_casscfsingoptcontdeloc90deg2sing.F64.003
-rw-r--r-- 1 g4rosendo g4     1532277 Sep 28 15:08 /scratch/934475.1.iqtc06.q/singletminimum_casscfsingoptcontdeloc90deg2sing.dat
-rw-r--r-- 1 g4rosendo g4           0 Sep 28 11:58 /scratch/934475.1.iqtc06.q/singletminimum_casscfsingoptcontdeloc90deg2sing.nodes.mpd
Thu Sep 29 19:30:31 CEST 2016
801198.707u 3354.489s 31:32:02.70 708.7%	0+0k 142368+847980464io 250pf+0w
