----- GAMESS execution script 'rungms' -----
This job is running on host g8nodes1
under operating system Linux at Thu Aug 4 00:50:46 CEST 2016
SGE has assigned the following compute nodes to this run:
Available scratch disk space (Kbyte units) at beginning of the job is
Filesystem                1K-blocks    Used Available Use% Mounted on
/dev/mapper/vgsys-scratch 569590032 6984368 562605664   2% /scratch
GAMESS temporary binary files will be written to /scratch/916890.1.iqtc06.q
GAMESS supplementary output files will be written to /scratch/916890.1.iqtc06.q
Copying input file singletminimum_casscfISCsearchTSgeo631gdmcqdpt.inp to your run's scratch directory...
MPI kickoff will run GAMESS on 8 cores in 0 nodes.
The binary to be executed is /aplic/gamess/gamess-2013r1_intel11.1_mkl11.1_ompi-1.4.2/gamess.00.x
MPI will run 8 compute processes and 8 data servers,
    placing  of each process type onto each node.
The scratch disk space on each node is /scratch/916890.1.iqtc06.q, with free space
Filesystem                1K-blocks    Used Available Use% Mounted on
/dev/mapper/vgsys-scratch 569590032 6984396 562605636   2% /scratch
          ******************************************************
          *         GAMESS VERSION =  1 MAY 2013 (R1)          *
          *             FROM IOWA STATE UNIVERSITY             *
          * M.W.SCHMIDT, K.K.BALDRIDGE, J.A.BOATZ, S.T.ELBERT, *
          *   M.S.GORDON, J.H.JENSEN, S.KOSEKI, N.MATSUNAGA,   *
          *          K.A.NGUYEN, S.J.SU, T.L.WINDUS,           *
          *       TOGETHER WITH M.DUPUIS, J.A.MONTGOMERY       *
          *         J.COMPUT.CHEM.  14, 1347-1363(1993)        *
          **************** 64 BIT INTEL VERSION ****************

  SINCE 1993, STUDENTS AND POSTDOCS WORKING AT IOWA STATE UNIVERSITY
  AND ALSO IN THEIR VARIOUS JOBS AFTER LEAVING ISU HAVE MADE IMPORTANT
  CONTRIBUTIONS TO THE CODE:
     IVANA ADAMOVIC, CHRISTINE AIKENS, YURI ALEXEEV, POOJA ARORA,
     ANDREY ASADCHEV, ROB BELL, PRADIPTA BANDYOPADHYAY, JONATHAN BENTZ,
     BRETT BODE, GALINA CHABAN, WEI CHEN, CHEOL HO CHOI, PAUL DAY,
     ALBERT DEFUSCO, TIM DUDLEY, DMITRI FEDOROV, GRAHAM FLETCHER,
     MARK FREITAG, KURT GLAESEMANN, DAN KEMP, GRANT MERRILL,
     NORIYUKI MINEZAWA, JONATHAN MULLIN, TAKESHI NAGATA,
     SEAN NEDD, HEATHER NETZLOFF, BOSILJKA NJEGIC, RYAN OLSON, MIKE PAK,
     JIM SHOEMAKER, LYUDMILA SLIPCHENKO, SAROM SOK, JIE SONG,
     TETSUYA TAKETSUGU, SIMON WEBB, SOOHAENG YOO, FEDERICO ZAHARIEV

  ADDITIONAL CODE HAS BEEN PROVIDED BY COLLABORATORS IN OTHER GROUPS:
     IOWA STATE UNIVERSITY:
          JOE IVANIC, LAIMUTIS BYTAUTAS, KLAUS RUEDENBERG
     UNIVERSITY OF TOKYO: KIMIHIKO HIRAO, TAKAHITO NAKAJIMA,
          TAKAO TSUNEDA, MUNEAKI KAMIYA, SUSUMU YANAGISAWA,
          KIYOSHI YAGI, MAHITO CHIBA, SEIKEN TOKURA, NAOAKI KAWAKAMI
     UNIVERSITY OF AARHUS: FRANK JENSEN
     UNIVERSITY OF IOWA: VISVALDAS KAIRYS, HUI LI
     NATIONAL INST. OF STANDARDS AND TECHNOLOGY: WALT STEVENS, DAVID GARMER
     UNIVERSITY OF PISA: BENEDETTA MENNUCCI, JACOPO TOMASI
     UNIVERSITY OF MEMPHIS: HENRY KURTZ, PRAKASHAN KORAMBATH
     UNIVERSITY OF ALBERTA: TOBY ZENG, MARIUSZ KLOBUKOWSKI
     UNIVERSITY OF NEW ENGLAND: MARK SPACKMAN
     MIE UNIVERSITY: HIROAKI UMEDA
     MICHIGAN STATE UNIVERSITY:
          KAROL KOWALSKI, MARTA WLOCH, JEFFREY GOUR, JESSE LUTZ,
          WEI LI, PIOTR PIECUCH
     UNIVERSITY OF SILESIA: MONIKA MUSIAL, STANISLAW KUCHARSKI
     FACULTES UNIVERSITAIRES NOTRE-DAME DE LA PAIX:
          OLIVIER QUINET, BENOIT CHAMPAGNE
     UNIVERSITY OF CALIFORNIA - SANTA BARBARA: BERNARD KIRTMAN
     INSTITUTE FOR MOLECULAR SCIENCE:
          KAZUYA ISHIMURA, MICHIO KATOUDA, AND SHIGERU NAGASE
     UNIVERSITY OF NOTRE DAME: DAN CHIPMAN
     KYUSHU UNIVERSITY:
          HARUYUKI NAKANO,
          FENG LONG GU, JACEK KORCHOWIEC, MARCIN MAKOWSKI, AND YURIKO AOKI,
          HIROTOSHI MORI AND EISAKU MIYOSHI
     PENNSYLVANIA STATE UNIVERSITY:
          TZVETELIN IORDANOV, CHET SWALINA, JONATHAN SKONE,
          SHARON HAMMES-SCHIFFER
     WASEDA UNIVERSITY:
          MASATO KOBAYASHI, TOMOKO AKAMA, TSUGUKI TOUMA,
          TAKESHI YOSHIKAWA, YASUHIRO IKABATA, HIROMI NAKAI
     NANJING UNIVERSITY: SHUHUA LI
     UNIVERSITY OF NEBRASKA:
          PEIFENG SU, DEJUN SI, NANDUN THELLAMUREGE, YALI WANG, HUI LI
     UNIVERSITY OF ZURICH:
          ROBERTO PEVERATI, KIM BALDRIDGE
     N. COPERNICUS UNIVERSITY AND JACKSON STATE UNIVERSITY:
          MARIA BARYSZ


 PARALLEL VERSION RUNNING ON     4 PROCESSORS IN     1 NODES.

 EXECUTION OF GAMESS BEGUN Thu Aug  4 00:50:49 2016

            ECHO OF THE FIRST FEW INPUT CARDS -
 INPUT CARD> $CONTRL SCFTYP=MCSCF NOSYM=0 ISPHER=1 MULT=1                                   
 INPUT CARD>         UNITS=ANGS COORD=UNIQUE RUNTYP=ENERGY MPLEVL=2 $END                    
 INPUT CARD> $SYSTEM MEMORY=400000000 MEMDDI=1600 $END                                      
 INPUT CARD> $BASIS  GBASIS=N31 NGAUSS=6 NDFUNC=1 $END                                      
 INPUT CARD> $GUESS  GUESS=HUCKEL $END                                                      
 INPUT CARD> $MCSCF CISTEP=GUGA MAXIT=1000                                                  
 INPUT CARD> ACURCY=1.0D-5 FULLNR=.TRUE. $END                                               
 INPUT CARD> $DRT NMCC=59 NDOC=6 NVAL=6 FORS=.TRUE. $END                                    
 INPUT CARD> $MRMP MRPT=MCQDPT $END                                                         
 INPUT CARD> $MCQDPT NOSYM=1 NSTATE=1 MULT=1 ISTSYM=1 IFORB=1                               
 INPUT CARD>         NMOFZC=21 NMODOC=38 NMOACT=12 EDSHFT(1)=0.02,0.1 $END                  
 INPUT CARD> $DATA                                                                          
 INPUT CARD> Das coord. From Energy + Gradient UHF Natural Orbitals                         
 INPUT CARD> C1                                                                             
 INPUT CARD> C           6.0   0.4803168752   1.0331833044  -0.0622502075                   
 INPUT CARD> N           7.0   0.1930670045   0.2151351749   1.0047622379                   
 INPUT CARD> C           6.0   1.0666962472  -0.4494406790   1.8087646909                   
 INPUT CARD> S          16.0   3.0560583598   0.2434088376  -0.3007943778                   
 INPUT CARD> C           6.0   1.6459705424   1.1484199146  -0.7075681578                   
 INPUT CARD> N           7.0   0.8059048700  -0.9041650407   2.9203460052                   
 INPUT CARD> C           6.0   1.3680091711  -1.7193361205   3.9085589595                   
 INPUT CARD> C           6.0   0.4770441401  -2.0337135323   4.9712747214                   
 INPUT CARD> C           6.0   0.9103615214  -2.8651030005   5.9793728262                   
 INPUT CARD> C           6.0   2.2252476318  -3.3488759046   5.9450702316                   
 INPUT CARD> C           6.0   3.0795281732  -3.0317660123   4.9343606137                   
 INPUT CARD> C           6.0   2.6609431052  -2.1967188721   3.8821282911                   
 INPUT CARD> N           7.0   2.6945542241  -4.2072947476   7.0231205527                   
 INPUT CARD> O           8.0   1.8924329553  -4.4791441981   7.9256658243                   
 INPUT CARD> C           6.0  -0.9236642953  -1.4678035337   4.9850407578                   
 INPUT CARD> C           6.0   3.6349319029  -1.8471911730   2.7865381327                   
 INPUT CARD> O           8.0   3.8308083227  -4.6052850170   6.9915346744                   
 INPUT CARD> H           1.0   4.0779476086  -3.4205103925   4.9384754251                   
 INPUT CARD> H           1.0   4.5972348497  -2.3090523708   2.9726760562                   
 INPUT CARD> H           1.0   3.7871487927  -0.7759142854   2.7209323073                   
 INPUT CARD> H           1.0   3.2758101748  -2.1755158295   1.8185864261                   
 INPUT CARD> H           1.0  -1.4336930807  -1.7327310209   5.9034041836                   
 INPUT CARD> H           1.0  -0.9054403053  -0.3861906846   4.9130267147                   
 INPUT CARD> H           1.0  -1.5025278791  -1.8434260997   4.1472207564                   
 INPUT CARD> H           1.0  -0.7359233667   0.2491062288   1.3638306937                   
 INPUT CARD> H           1.0   1.6824782042   1.8560209334  -1.5172522927                   
 INPUT CARD> H           1.0  -0.3625540936   1.6184224312  -0.3812197433                   
 INPUT CARD> H           1.0   0.2617763450  -3.1428283083   6.7844516950                   
 INPUT CARD> $END                                                                           
  400000000 WORDS OF MEMORY AVAILABLE

     BASIS OPTIONS
     -------------
     GBASIS=N31          IGAUSS=       6      POLAR=POPN31  
     NDFUNC=       1     NFFUNC=       0     DIFFSP=       F
     NPFUNC=       0      DIFFS=       F     BASNAM=        


     RUN TITLE
     ---------
  Das coord. From Energy + Gradient UHF Natural Orbitals                         

 THE POINT GROUP OF THE MOLECULE IS C1      
 THE ORDER OF THE PRINCIPAL AXIS IS     0

 ATOM      ATOMIC                      COORDINATES (BOHR)
           CHARGE         X                   Y                   Z
 C           6.0     0.9076672814        1.9524333404       -0.1176358349
 N           7.0     0.3648437358        0.4065465309        1.8987253124
 C           6.0     2.0157636193       -0.8493197310        3.4180696421
 S          16.0     5.7751129025        0.4599760061       -0.5684189527
 C           6.0     3.1104333090        2.1701989574       -1.3371099359
 N           7.0     1.5229393765       -1.7086241746        5.5186537392
 C           6.0     2.5851624821       -3.2490741485        7.3861054403
 C           6.0     0.9014827088       -3.8431613136        9.3943470331
 C           6.0     1.7203338252       -5.4142595975       11.2993762199
 C           6.0     4.2051082789       -6.3284578266       11.2345537155
 C           6.0     5.8194644188       -5.7292070221        9.3245894845
 C           6.0     5.0284533377       -4.1511967403        7.3361587194
 N           7.0     5.0919691426       -7.9506342225       13.2717734233
 O           8.0     3.5761797357       -8.4643551939       14.9773366782
 C           6.0    -1.7454724228       -2.7737464825        9.4203610699
 C           6.0     6.8690252805       -3.4906851639        5.2657935251
 O           8.0     7.2391780414       -8.7027267775       13.2120847683
 H           1.0     7.7062035725       -6.4638273800        9.3323653505
 H           1.0     8.6875141671       -4.3634762721        5.6175431965
 H           1.0     7.1566734929       -1.4662653894        5.1418164919
 H           1.0     6.1903836182       -4.1111287997        3.4366300303
 H           1.0    -2.7092870730       -3.2743868399       11.1558163018
 H           1.0    -1.7110340753       -0.7297945729        9.2842742611
 H           1.0    -2.8393659804       -3.4835702070        7.8371108402
 H           1.0    -1.3906935110        0.4707425143        2.5772663047
 H           1.0     3.1794227863        3.5073709916       -2.8671910874
 H           1.0    -0.6851278926        3.0583749274       -0.7204008559
 H           1.0     0.4946855621       -5.9390843291       12.8207546805

          INTERNUCLEAR DISTANCES (ANGS.)
          ------------------------------

                1 C          2 N          3 C          4 S          5 C     

   1 C       0.0000000    1.3748566 *  2.4581927 *  2.7046425 *  1.3373344 *
   2 N       1.3748566 *  0.0000000    1.3606282 *  3.1467439    2.4318767 *
   3 C       2.4581927 *  1.3606282 *  0.0000000    2.9812483 *  3.0365520  
   4 S       2.7046425 *  3.1467439    2.9812483 *  0.0000000    1.7241977 *
   5 C       1.3373344 *  2.4318767 *  3.0365520    1.7241977 *  0.0000000  
   6 N       3.5714432    2.3017090 *  1.2289831 *  4.0933925    4.2521261  
   7 C       4.9124013    3.6816713    2.4723592 *  4.9417136    5.4414995  
   8 C       5.8942548    4.5684992    3.5859559    6.2953406    6.6137447  
   9 C       7.2029705    5.8948392    4.8222233    7.3285306    7.8335603  
  10 C       7.6377435    6.4217269    5.1824694    7.2529705    8.0510142  
  11 C       6.9459220    5.8579663    4.5265049    6.1752869    7.1666172  
  12 C       5.5448643    4.4929598    3.1453840    4.8587222    5.7693532  
  13 N       9.0866900    7.8762911    6.6303013    8.5778306    9.4629147  
  14 O       9.8074782    8.5336399    7.3713520    9.5567347   10.3083922  
  15 C       5.8052773    4.4634055    3.8842409    6.8342149    6.7715172  
  16 C       5.1345641    4.3902562    3.0831123    3.7732380    5.0138241  
  17 O       9.6319260    8.5035908    7.1953084    8.7913669    9.8567145  
  18 H       7.6016835    6.6169718    5.2621269    6.4744505    7.6594677  
  19 H       6.1098552    5.4443459    4.1566270    4.4278541    5.8487839  
  20 H       4.6855177    4.1042469    2.8878187 *  3.2717495    4.4768652  
  21 H       4.6527497    3.9850756    2.8035007 *  3.2235481    4.4817835  
  22 H       6.8485581    5.5169941    4.9663723    7.9091767    7.8415760  
  23 H       5.3561484    4.1040032    3.6782830    6.5782823    6.3604885  
  24 H       5.4704845    4.1216213    3.7433254    6.7022703    6.5140740  
  25 H       2.0316801 *  0.9965477 *  1.9837771 *  4.1412721    3.2822061  
  26 H       2.0589523 *  3.3572919    4.0934985    2.4427464 *  1.0759277 *
  27 H       1.0745594 *  2.0491159 *  3.3338935    3.6856535    2.0884389 *
  28 H       8.0227277    6.6847176    5.7148661    8.3351860    8.7442076  

                6 N          7 C          8 C          9 C         10 C     

   1 C       3.5714432    4.9124013    5.8942548    7.2029705    7.6377435  
   2 N       2.3017090 *  3.6816713    4.5684992    5.8948392    6.4217269  
   3 C       1.2289831 *  2.4723592 *  3.5859559    4.8222233    5.1824694  
   4 S       4.0933925    4.9417136    6.2953406    7.3285306    7.2529705  
   5 C       4.2521261    5.4414995    6.6137447    7.8335603    8.0510142  
   6 N       0.0000000    1.3989389 *  2.3643895 *  3.6350838    4.1400606  
   7 C       1.3989389 *  0.0000000    1.4219763 *  2.4104965 *  2.7454755 *
   8 C       2.3643895 *  1.4219763 *  0.0000000    1.3766750 *  2.3946075 *
   9 C       3.6350838    2.4104965 *  1.3766750 *  0.0000000    1.4014772 *
  10 C       4.1400606    2.7454755 *  2.3946075 *  1.4014772 *  0.0000000  
  11 C       3.7084099    2.3883129 *  2.7875427 *  2.4135267 *  1.3608409 *
  12 C       2.4570078 *  1.3785032 *  2.4458588 *  2.8124203 *  2.4027122 *
  13 N       5.5955716    4.2012086    3.7218111    2.4645956 *  1.4557898 *
  14 O       6.2461385    4.9019087    4.0880171    2.7124988 *  2.3045674 *
  15 C       2.7517380 *  2.5443760 *  1.5107706 *  2.5109346 *  3.7915348  
  16 C       2.9850623 *  2.5326303 *  3.8444921    4.3189839    3.7707548  
  17 O       6.2787664    4.8886419    4.6842464    3.5470713    2.2916101 *
  18 H       4.5946821    3.3613224    3.8588583    3.3801696    2.1097066 *
  19 H       4.0435912    3.4134353    4.5876115    4.7898280    3.9424210  
  20 H       2.9906570 *  2.8553000 *  4.1955801    4.8226600    4.4107519  
  21 H       2.9884175 *  2.8663199 *  4.2181326    4.8355994    4.4168229  
  22 H       3.8211198    3.4393491    2.1471778 *  2.6043482 *  4.0001884  
  23 H       2.6772703 *  2.8204263 *  2.1515082 *  3.2525738    4.4321354  
  24 H       2.7778219 *  2.8831130 *  2.1526680 *  3.1972864    4.4039700  
  25 H       2.4758855 *  3.8440785    4.4380411    5.8061848    6.5346587  
  26 H       5.2989892    6.5054974    7.6605540    8.8929502    9.1143737  
  27 H       4.3161418    5.7041812    6.5339283    7.8853949    8.4494210  
  28 H       4.4987778    3.3942363    2.1363723 *  1.0704887 *  2.1452823 *

               11 C         12 C         13 N         14 O         15 C     

   1 C       6.9459220    5.5448643    9.0866900    9.8074782    5.8052773  
   2 N       5.8579663    4.4929598    7.8762911    8.5336399    4.4634055  
   3 C       4.5265049    3.1453840    6.6303013    7.3713520    3.8842409  
   4 S       6.1752869    4.8587222    8.5778306    9.5567347    6.8342149  
   5 C       7.1666172    5.7693532    9.4629147   10.3083922    6.7715172  
   6 N       3.7084099    2.4570078 *  5.5955716    6.2461385    2.7517380 *
   7 C       2.3883129 *  1.3785032 *  4.2012086    4.9019087    2.5443760 *
   8 C       2.7875427 *  2.4458588 *  3.7218111    4.0880171    1.5107706 *
   9 C       2.4135267 *  2.8124203 *  2.4645956 *  2.7124988 *  2.5109346 *
  10 C       1.3608409 *  2.4027122 *  1.4557898 *  2.3045674 *  3.7915348  
  11 C       0.0000000    1.4070217 *  2.4275483 *  3.5287399    4.2981504  
  12 C       1.4070217 *  0.0000000    3.7295278    4.7064072    3.8206209  
  13 N       2.4275483 *  3.7295278    0.0000000    1.2376949 *  4.9749459  
  14 O       3.5287399    4.7064072    1.2376949 *  0.0000000    5.0641734  
  15 C       4.2981504    3.8206209    4.9749459    5.0641734    0.0000000  
  16 C       2.5149219 *  1.5070307 *  4.9399423    6.0310955    5.0752486  
  17 O       2.6967293 *  4.1034356    1.2043535 *  2.1554145 *  6.0394385  
  18 H       1.0714385 *  2.1497527 *  2.6226994 *  3.8497385    5.3694836  
  19 H       2.5833999 *  2.1421830 *  4.8610306    6.0462682    5.9361299  
  20 H       3.2386508    2.1529982 *  5.6104330    6.6628155    5.2722536  
  21 H       3.2372426    2.1533035 *  5.6172199    6.6720952    5.3068706  
  22 H       4.7953836    4.5898678    4.9416249    4.7639733    1.0833777 *
  23 H       4.7832518    4.1303577    5.6580291    5.8014100    1.0841607 *
  24 H       4.7986434    4.1868342    5.6101847    5.7227106    1.0854113 *
  25 H       6.1701278    4.8849345    7.9784239    8.5042513    4.0120055  
  26 H       8.2137396    6.8216863   10.5226453   11.3730867    7.7536832  
  27 H       7.8566900    6.4709331    9.9050062   10.5484422    6.2158175  
  28 H       3.3726692    3.8826029    2.6661695 *  2.3973216 *  2.7292595 *

               16 C         17 O         18 H         19 H         20 H     

   1 C       5.1345641    9.6319260    7.6016835    6.1098552    4.6855177  
   2 N       4.3902562    8.5035908    6.6169718    5.4443459    4.1042469  
   3 C       3.0831123    7.1953084    5.2621269    4.1566270    2.8878187 *
   4 S       3.7732380    8.7913669    6.4744505    4.4278541    3.2717495  
   5 C       5.0138241    9.8567145    7.6594677    5.8487839    4.4768652  
   6 N       2.9850623 *  6.2787664    4.5946821    4.0435912    2.9906570 *
   7 C       2.5326303 *  4.8886419    3.3613224    3.4134353    2.8553000 *
   8 C       3.8444921    4.6842464    3.8588583    4.5876115    4.1955801  
   9 C       4.3189839    3.5470713    3.3801696    4.7898280    4.8226600  
  10 C       3.7707548    2.2916101 *  2.1097066 *  3.9424210    4.4107519  
  11 C       2.5149219 *  2.6967293 *  1.0714385 *  2.5833999 *  3.2386508  
  12 C       1.5070307 *  4.1034356    2.1497527 *  2.1421830 *  2.1529982 *
  13 N       4.9399423    1.2043535 *  2.6226994 *  4.8610306    5.6104330  
  14 O       6.0310955    2.1554145 *  3.8497385    6.0462682    6.6628155  
  15 C       5.0752486    6.0394385    5.3694836    5.9361299    5.2722536  
  16 C       0.0000000    5.0326380    2.7023009 *  1.0835082 *  1.0840241 *
  17 O       5.0326380    0.0000000    2.3832375 *  4.6916222    5.7362035  
  18 H       2.7023009 *  2.3832375 *  0.0000000    2.3171891 *  3.4635170  
  19 H       1.0835082 *  4.6916222    2.3171891 *  0.0000000    1.7521777 *
  20 H       1.0840241 *  5.7362035    3.4635170    1.7521777 *  0.0000000  
  21 H       1.0833725 *  5.7420549    3.4535696    1.7595221 *  1.7420045 *
  22 H       5.9513792    6.0951267    5.8444734    6.7300375    6.1887653  
  23 H       5.2222080    6.6748036    5.8345436    6.1434348    5.1939922  
  24 H       5.3145992    6.6454843    5.8527759    6.2292430    5.5816270  
  25 H       5.0520229    8.7230273    7.0297599    6.1298561    4.8322431  
  26 H       6.0040376   10.8978554    8.6750491    6.7825584    5.4146957  
  27 H       6.1664465   10.5202819    8.5678501    7.1605294    5.7075590  
  28 H       5.3888929    3.8625966    4.2482819    5.8327537    5.8773057  

               21 H         22 H         23 H         24 H         25 H     

   1 C       4.6527497    6.8485581    5.3561484    5.4704845    2.0316801 *
   2 N       3.9850756    5.5169941    4.1040032    4.1216213    0.9965477 *
   3 C       2.8035007 *  4.9663723    3.6782830    3.7433254    1.9837771 *
   4 S       3.2235481    7.9091767    6.5782823    6.7022703    4.1412721  
   5 C       4.4817835    7.8415760    6.3604885    6.5140740    3.2822061  
   6 N       2.9884175 *  3.8211198    2.6772703 *  2.7778219 *  2.4758855 *
   7 C       2.8663199 *  3.4393491    2.8204263 *  2.8831130 *  3.8440785  
   8 C       4.2181326    2.1471778 *  2.1515082 *  2.1526680 *  4.4380411  
   9 C       4.8355994    2.6043482 *  3.2525738    3.1972864    5.8061848  
  10 C       4.4168229    4.0001884    4.4321354    4.4039700    6.5346587  
  11 C       3.2372426    4.7953836    4.7832518    4.7986434    6.1701278  
  12 C       2.1533035 *  4.5898678    4.1303577    4.1868342    4.8849345  
  13 N       5.6172199    4.9416249    5.6580291    5.6101847    7.9784239  
  14 O       6.6720952    4.7639733    5.8014100    5.7227106    8.5042513  
  15 C       5.3068706    1.0833777 *  1.0841607 *  1.0854113 *  4.0120055  
  16 C       1.0833725 *  5.9513792    5.2222080    5.3145992    5.0520229  
  17 O       5.7420549    6.0951267    6.6748036    6.6454843    8.7230273  
  18 H       3.4535696    5.8444734    5.8345436    5.8527759    7.0297599  
  19 H       1.7595221 *  6.7300375    6.1434348    6.2292430    6.1298561  
  20 H       1.7420045 *  6.1887653    5.1939922    5.5816270    4.8322431  
  21 H       0.0000000    6.2498972    5.5009182    5.3259118    4.7095224  
  22 H       6.2498972    0.0000000    1.7530172 *  1.7610144 *  5.0022284  
  23 H       5.5009182    1.7530172 *  0.0000000    1.7511446 *  3.6095887  
  24 H       5.3259118    1.7610144 *  1.7511446 *  0.0000000    3.5656184  
  25 H       4.7095224    5.0022284    3.6095887    3.5656184    0.0000000  
  26 H       5.4699009    8.8122532    7.2851440    7.4777287    4.0904132  
  27 H       5.6983164    7.2023653    5.6870242    5.8129776    2.2493627 *
  28 H       5.8889652    2.3747075 *  3.5303933    3.4287319    6.4717661  

               26 H         27 H         28 H     

   1 C       2.0589523 *  1.0745594 *  8.0227277  
   2 N       3.3572919    2.0491159 *  6.6847176  
   3 C       4.0934985    3.3338935    5.7148661  
   4 S       2.4427464 *  3.6856535    8.3351860  
   5 C       1.0759277 *  2.0884389 *  8.7442076  
   6 N       5.2989892    4.3161418    4.4987778  
   7 C       6.5054974    5.7041812    3.3942363  
   8 C       7.6605540    6.5339283    2.1363723 *
   9 C       8.8929502    7.8853949    1.0704887 *
  10 C       9.1143737    8.4494210    2.1452823 *
  11 C       8.2137396    7.8566900    3.3726692  
  12 C       6.8216863    6.4709331    3.8826029  
  13 N      10.5226453    9.9050062    2.6661695 *
  14 O      11.3730867   10.5484422    2.3973216 *
  15 C       7.7536832    6.2158175    2.7292595 *
  16 C       6.0040376    6.1664465    5.3888929  
  17 O      10.8978554   10.5202819    3.8625966  
  18 H       8.6750491    8.5678501    4.2482819  
  19 H       6.7825584    7.1605294    5.8327537  
  20 H       5.4146957    5.7075590    5.8773057  
  21 H       5.4699009    5.6983164    5.8889652  
  22 H       8.8122532    7.2023653    2.3747075 *
  23 H       7.2851440    5.6870242    3.5303933  
  24 H       7.4777287    5.8129776    3.4287319  
  25 H       4.0904132    2.2493627 *  6.4717661  
  26 H       0.0000000    2.3514209 *  9.7941399  
  27 H       2.3514209 *  0.0000000    8.6258996  
  28 H       9.7941399    8.6258996    0.0000000  

  * ... LESS THAN  3.000


     ATOMIC BASIS SET
     ----------------
 THE CONTRACTED PRIMITIVE FUNCTIONS HAVE BEEN UNNORMALIZED
 THE CONTRACTED BASIS FUNCTIONS ARE NOW NORMALIZED TO UNITY

  SHELL TYPE  PRIMITIVE        EXPONENT          CONTRACTION COEFFICIENT(S)

 C         

      1   S       1          3047.5248800    0.001834737132
      1   S       2           457.3695180    0.014037322813
      1   S       3           103.9486850    0.068842622264
      1   S       4            29.2101553    0.232184443216
      1   S       5             9.2866630    0.467941348435
      1   S       6             3.1639270    0.362311985337

      2   L       7             7.8682723   -0.119332419775    0.068999066591
      2   L       8             1.8812885   -0.160854151696    0.316423960957
      2   L       9             0.5442493    1.143456437840    0.744308290898

      3   L      10             0.1687145    1.000000000000    1.000000000000

      4   D      11             0.8000000    1.000000000000

 N         

      5   S      12          4173.5114600    0.001834772160
      5   S      13           627.4579110    0.013994627002
      5   S      14           142.9020930    0.068586551812
      5   S      15            40.2343293    0.232240873040
      5   S      16            12.8202129    0.469069948082
      5   S      17             4.3904370    0.360455199063

      6   L      18            11.6263619   -0.114961181702    0.067579743878
      6   L      19             2.7162798   -0.169117478561    0.323907295893
      6   L      20             0.7722184    1.145851947027    0.740895139755

      7   L      21             0.2120315    1.000000000000    1.000000000000

      8   D      22             0.8000000    1.000000000000

 C         

      9   S      23          3047.5248800    0.001834737132
      9   S      24           457.3695180    0.014037322813
      9   S      25           103.9486850    0.068842622264
      9   S      26            29.2101553    0.232184443216
      9   S      27             9.2866630    0.467941348435
      9   S      28             3.1639270    0.362311985337

     10   L      29             7.8682723   -0.119332419775    0.068999066591
     10   L      30             1.8812885   -0.160854151696    0.316423960957
     10   L      31             0.5442493    1.143456437840    0.744308290898

     11   L      32             0.1687145    1.000000000000    1.000000000000

     12   D      33             0.8000000    1.000000000000

 S         

     13   S      34         21917.1000000    0.001869240849
     13   S      35          3301.4900000    0.014230306464
     13   S      36           754.1460000    0.069696231659
     13   S      37           212.7110000    0.238487108332
     13   S      38            67.9896000    0.483307219541
     13   S      39            23.0515000    0.338074153569

     14   L      40           423.7350000   -0.002376770499    0.004061009982
     14   L      41           100.7100000   -0.031693006651    0.030681299864
     14   L      42            32.1599000   -0.113317023779    0.130451999421
     14   L      43            11.8079000    0.056090011770    0.327204998547
     14   L      44             4.6311000    0.592255124284    0.452850997989
     14   L      45             1.8702500    0.455006095483    0.256041998863

     15   L      46             2.6158400   -0.250373114159   -0.014510489547
     15   L      47             0.9221670    0.066956763101    0.310262776489
     15   L      48             0.3412870    1.054506269068    0.754482456476

     16   L      49             0.1171670    1.000000000000    1.000000000000

     17   D      50             0.6500000    1.000000000000

 C         

     18   S      51          3047.5248800    0.001834737132
     18   S      52           457.3695180    0.014037322813
     18   S      53           103.9486850    0.068842622264
     18   S      54            29.2101553    0.232184443216
     18   S      55             9.2866630    0.467941348435
     18   S      56             3.1639270    0.362311985337

     19   L      57             7.8682723   -0.119332419775    0.068999066591
     19   L      58             1.8812885   -0.160854151696    0.316423960957
     19   L      59             0.5442493    1.143456437840    0.744308290898

     20   L      60             0.1687145    1.000000000000    1.000000000000

     21   D      61             0.8000000    1.000000000000

 N         

     22   S      62          4173.5114600    0.001834772160
     22   S      63           627.4579110    0.013994627002
     22   S      64           142.9020930    0.068586551812
     22   S      65            40.2343293    0.232240873040
     22   S      66            12.8202129    0.469069948082
     22   S      67             4.3904370    0.360455199063

     23   L      68            11.6263619   -0.114961181702    0.067579743878
     23   L      69             2.7162798   -0.169117478561    0.323907295893
     23   L      70             0.7722184    1.145851947027    0.740895139755

     24   L      71             0.2120315    1.000000000000    1.000000000000

     25   D      72             0.8000000    1.000000000000

 C         

     26   S      73          3047.5248800    0.001834737132
     26   S      74           457.3695180    0.014037322813
     26   S      75           103.9486850    0.068842622264
     26   S      76            29.2101553    0.232184443216
     26   S      77             9.2866630    0.467941348435
     26   S      78             3.1639270    0.362311985337

     27   L      79             7.8682723   -0.119332419775    0.068999066591
     27   L      80             1.8812885   -0.160854151696    0.316423960957
     27   L      81             0.5442493    1.143456437840    0.744308290898

     28   L      82             0.1687145    1.000000000000    1.000000000000

     29   D      83             0.8000000    1.000000000000

 C         

     30   S      84          3047.5248800    0.001834737132
     30   S      85           457.3695180    0.014037322813
     30   S      86           103.9486850    0.068842622264
     30   S      87            29.2101553    0.232184443216
     30   S      88             9.2866630    0.467941348435
     30   S      89             3.1639270    0.362311985337

     31   L      90             7.8682723   -0.119332419775    0.068999066591
     31   L      91             1.8812885   -0.160854151696    0.316423960957
     31   L      92             0.5442493    1.143456437840    0.744308290898

     32   L      93             0.1687145    1.000000000000    1.000000000000

     33   D      94             0.8000000    1.000000000000

 C         

     34   S      95          3047.5248800    0.001834737132
     34   S      96           457.3695180    0.014037322813
     34   S      97           103.9486850    0.068842622264
     34   S      98            29.2101553    0.232184443216
     34   S      99             9.2866630    0.467941348435
     34   S     100             3.1639270    0.362311985337

     35   L     101             7.8682723   -0.119332419775    0.068999066591
     35   L     102             1.8812885   -0.160854151696    0.316423960957
     35   L     103             0.5442493    1.143456437840    0.744308290898

     36   L     104             0.1687145    1.000000000000    1.000000000000

     37   D     105             0.8000000    1.000000000000

 C         

     38   S     106          3047.5248800    0.001834737132
     38   S     107           457.3695180    0.014037322813
     38   S     108           103.9486850    0.068842622264
     38   S     109            29.2101553    0.232184443216
     38   S     110             9.2866630    0.467941348435
     38   S     111             3.1639270    0.362311985337

     39   L     112             7.8682723   -0.119332419775    0.068999066591
     39   L     113             1.8812885   -0.160854151696    0.316423960957
     39   L     114             0.5442493    1.143456437840    0.744308290898

     40   L     115             0.1687145    1.000000000000    1.000000000000

     41   D     116             0.8000000    1.000000000000

 C         

     42   S     117          3047.5248800    0.001834737132
     42   S     118           457.3695180    0.014037322813
     42   S     119           103.9486850    0.068842622264
     42   S     120            29.2101553    0.232184443216
     42   S     121             9.2866630    0.467941348435
     42   S     122             3.1639270    0.362311985337

     43   L     123             7.8682723   -0.119332419775    0.068999066591
     43   L     124             1.8812885   -0.160854151696    0.316423960957
     43   L     125             0.5442493    1.143456437840    0.744308290898

     44   L     126             0.1687145    1.000000000000    1.000000000000

     45   D     127             0.8000000    1.000000000000

 C         

     46   S     128          3047.5248800    0.001834737132
     46   S     129           457.3695180    0.014037322813
     46   S     130           103.9486850    0.068842622264
     46   S     131            29.2101553    0.232184443216
     46   S     132             9.2866630    0.467941348435
     46   S     133             3.1639270    0.362311985337

     47   L     134             7.8682723   -0.119332419775    0.068999066591
     47   L     135             1.8812885   -0.160854151696    0.316423960957
     47   L     136             0.5442493    1.143456437840    0.744308290898

     48   L     137             0.1687145    1.000000000000    1.000000000000

     49   D     138             0.8000000    1.000000000000

 N         

     50   S     139          4173.5114600    0.001834772160
     50   S     140           627.4579110    0.013994627002
     50   S     141           142.9020930    0.068586551812
     50   S     142            40.2343293    0.232240873040
     50   S     143            12.8202129    0.469069948082
     50   S     144             4.3904370    0.360455199063

     51   L     145            11.6263619   -0.114961181702    0.067579743878
     51   L     146             2.7162798   -0.169117478561    0.323907295893
     51   L     147             0.7722184    1.145851947027    0.740895139755

     52   L     148             0.2120315    1.000000000000    1.000000000000

     53   D     149             0.8000000    1.000000000000

 O         

     54   S     150          5484.6716600    0.001831074430
     54   S     151           825.2349460    0.013950172200
     54   S     152           188.0469580    0.068445078098
     54   S     153            52.9645000    0.232714335992
     54   S     154            16.8975704    0.470192897984
     54   S     155             5.7996353    0.358520852987

     55   L     156            15.5396162   -0.110777549525    0.070874268231
     55   L     157             3.5999336   -0.148026262701    0.339752839147
     55   L     158             1.0137618    1.130767015354    0.727158577316

     56   L     159             0.2700058    1.000000000000    1.000000000000

     57   D     160             0.8000000    1.000000000000

 C         

     58   S     161          3047.5248800    0.001834737132
     58   S     162           457.3695180    0.014037322813
     58   S     163           103.9486850    0.068842622264
     58   S     164            29.2101553    0.232184443216
     58   S     165             9.2866630    0.467941348435
     58   S     166             3.1639270    0.362311985337

     59   L     167             7.8682723   -0.119332419775    0.068999066591
     59   L     168             1.8812885   -0.160854151696    0.316423960957
     59   L     169             0.5442493    1.143456437840    0.744308290898

     60   L     170             0.1687145    1.000000000000    1.000000000000

     61   D     171             0.8000000    1.000000000000

 C         

     62   S     172          3047.5248800    0.001834737132
     62   S     173           457.3695180    0.014037322813
     62   S     174           103.9486850    0.068842622264
     62   S     175            29.2101553    0.232184443216
     62   S     176             9.2866630    0.467941348435
     62   S     177             3.1639270    0.362311985337

     63   L     178             7.8682723   -0.119332419775    0.068999066591
     63   L     179             1.8812885   -0.160854151696    0.316423960957
     63   L     180             0.5442493    1.143456437840    0.744308290898

     64   L     181             0.1687145    1.000000000000    1.000000000000

     65   D     182             0.8000000    1.000000000000

 O         

     66   S     183          5484.6716600    0.001831074430
     66   S     184           825.2349460    0.013950172200
     66   S     185           188.0469580    0.068445078098
     66   S     186            52.9645000    0.232714335992
     66   S     187            16.8975704    0.470192897984
     66   S     188             5.7996353    0.358520852987

     67   L     189            15.5396162   -0.110777549525    0.070874268231
     67   L     190             3.5999336   -0.148026262701    0.339752839147
     67   L     191             1.0137618    1.130767015354    0.727158577316

     68   L     192             0.2700058    1.000000000000    1.000000000000

     69   D     193             0.8000000    1.000000000000

 H         

     70   S     194            18.7311370    0.033494604338
     70   S     195             2.8253944    0.234726953484
     70   S     196             0.6401217    0.813757326146

     71   S     197             0.1612778    1.000000000000

 H         

     72   S     198            18.7311370    0.033494604338
     72   S     199             2.8253944    0.234726953484
     72   S     200             0.6401217    0.813757326146

     73   S     201             0.1612778    1.000000000000

 H         

     74   S     202            18.7311370    0.033494604338
     74   S     203             2.8253944    0.234726953484
     74   S     204             0.6401217    0.813757326146

     75   S     205             0.1612778    1.000000000000

 H         

     76   S     206            18.7311370    0.033494604338
     76   S     207             2.8253944    0.234726953484
     76   S     208             0.6401217    0.813757326146

     77   S     209             0.1612778    1.000000000000

 H         

     78   S     210            18.7311370    0.033494604338
     78   S     211             2.8253944    0.234726953484
     78   S     212             0.6401217    0.813757326146

     79   S     213             0.1612778    1.000000000000

 H         

     80   S     214            18.7311370    0.033494604338
     80   S     215             2.8253944    0.234726953484
     80   S     216             0.6401217    0.813757326146

     81   S     217             0.1612778    1.000000000000

 H         

     82   S     218            18.7311370    0.033494604338
     82   S     219             2.8253944    0.234726953484
     82   S     220             0.6401217    0.813757326146

     83   S     221             0.1612778    1.000000000000

 H         

     84   S     222            18.7311370    0.033494604338
     84   S     223             2.8253944    0.234726953484
     84   S     224             0.6401217    0.813757326146

     85   S     225             0.1612778    1.000000000000

 H         

     86   S     226            18.7311370    0.033494604338
     86   S     227             2.8253944    0.234726953484
     86   S     228             0.6401217    0.813757326146

     87   S     229             0.1612778    1.000000000000

 H         

     88   S     230            18.7311370    0.033494604338
     88   S     231             2.8253944    0.234726953484
     88   S     232             0.6401217    0.813757326146

     89   S     233             0.1612778    1.000000000000

 H         

     90   S     234            18.7311370    0.033494604338
     90   S     235             2.8253944    0.234726953484
     90   S     236             0.6401217    0.813757326146

     91   S     237             0.1612778    1.000000000000

 TOTAL NUMBER OF BASIS SET SHELLS             =   91
 NUMBER OF CARTESIAN GAUSSIAN BASIS FUNCTIONS =  281
 NOTE: THIS RUN WILL RESTRICT THE MO VARIATION SPACE TO SPHERICAL HARMONICS.
 THE NUMBER OF ORBITALS KEPT IN THE VARIATIONAL SPACE WILL BE PRINTED LATER.
 NUMBER OF ELECTRONS                          =  130
 CHARGE OF MOLECULE                           =    0
 SPIN MULTIPLICITY                            =    1
 NUMBER OF OCCUPIED ORBITALS (ALPHA)          =   65
 NUMBER OF OCCUPIED ORBITALS (BETA )          =   65
 TOTAL NUMBER OF ATOMS                        =   28
 THE NUCLEAR REPULSION ENERGY IS     1213.2990407358

     $CONTRL OPTIONS
     ---------------
 SCFTYP=MCSCF        RUNTYP=ENERGY       EXETYP=RUN     
 MPLEVL=       2     CITYP =NONE         CCTYP =NONE         VBTYP =NONE    
 DFTTYP=NONE         TDDFT =NONE    
 MULT  =       1     ICHARG=       0     NZVAR =       0     COORD =UNIQUE  
 PP    =NONE         RELWFN=NONE         LOCAL =NONE         NUMGRD=       F
 ISPHER=       1     NOSYM =       0     MAXIT =      30     UNITS =ANGS    
 PLTORB=       F     MOLPLT=       F     AIMPAC=       F     FRIEND=        
 NPRINT=       7     IREST =       0     GEOM  =INPUT   
 NORMF =       0     NORMP =       0     ITOL  =      20     ICUT  =       9
 INTTYP=BEST         GRDTYP=BEST         QMTTOL= 1.0E-06

     $SYSTEM OPTIONS
     ---------------
  REPLICATED MEMORY=   400000000 WORDS (ON EVERY NODE).
 DISTRIBUTED MEMDDI=        1600 MILLION WORDS IN AGGREGATE,
 MEMDDI DISTRIBUTED OVER   4 PROCESSORS IS   400000000 WORDS/PROCESSOR.
 TOTAL MEMORY REQUESTED ON EACH PROCESSOR=   800000000 WORDS.
 TIMLIM=      525600.00 MINUTES, OR     365.0 DAYS.
 PARALL= T  BALTYP=  DLB     KDIAG=    0  COREFL= F
 MXSEQ2=     300 MXSEQ3=     150

          ----------------
          PROPERTIES INPUT
          ----------------

     MOMENTS            FIELD           POTENTIAL          DENSITY
 IEMOM =       1   IEFLD =       0   IEPOT =       0   IEDEN =       0
 WHERE =COMASS     WHERE =NUCLEI     WHERE =NUCLEI     WHERE =NUCLEI  
 OUTPUT=BOTH       OUTPUT=BOTH       OUTPUT=BOTH       OUTPUT=BOTH    
 IEMINT=       0   IEFINT=       0                     IEDINT=       0
                                                       MORB  =       0

     -------------------------------
     INTEGRAL TRANSFORMATION OPTIONS
     -------------------------------
     NWORD  =            0
     CUTOFF = 1.0E-09     MPTRAN =       0
     DIRTRF =       F     AOINTS =DUP     
 INTEGRAL TRANSFORMATION OPTION -DIRTRF- FORCED TRUE,
 DUE TO THE CHOICE OF -FULLNR- IN A PARALLEL JOB.

          ----------------------
          MCSCF INPUT PARAMETERS
          ----------------------
 CONVERGER SELECTION: FOCAS = F  SOSCF = F  FULLNR = T  QUD = F  JACOBI = F
 SECULAR EQUATION METHOD CISTEP = GUGA    
 --- GENERAL INPUT OPTIONS:
 MAXIT =    1000  MICIT =       1  ACURCY= 1.000E-05
 DAMP  =   0.000  CANONC=       T  ENGTOL= 1.000E-10
 EKT   =       F  NPUNCH=       2  NWORD =         0
 REGENERATE CI AFTER CONVERGENCE = NONE    
 DIABATIZATION AFTER CONVERGENCE =        F
 --- INPUT FOR FULLNR CONVERGER:
 METHOD=DM2       FORS  =       F  DROPC =       T
 LINSER=       F  FCORE =       F  NORB  =     281

          ----------------------
          INTEGRAL INPUT OPTIONS
          ----------------------
 NOPK  =       1 NORDER=       0 SCHWRZ=       T

 ------------------------------------------
 MULTIREFERENCE PERTURBATION THEORY CONTROL
 ------------------------------------------
 MRPT=MCQDPT   READ CONVERGED MCSCF VECTORS= F

 
    ----------------------------
    MRMP/MCQDPT INPUT PARAMETERS
    ----------------------------
 # OF ELECTRONS                =       130
 SPIN MULTIPLICITY             =         1
 SPATIAL STATE SYMMETRY        =         1
 # OF STATES                   =         1 (DIMENSION OF EFFECTIVE HAMILTONIAN)
 # OF FROZEN CORE ORBITALS     =        21
 # OF DOUBLY OCCUPIED ORBITALS =        38
 # OF ACTIVE ORBITALS          =        12
 # OF EXTERNAL ORBITALS        =       210
 # OF FROZEN VIRTUAL ORBITALS  =         0

      IFORB      IROT    ISELCT    LENGTH    MAXCSF    MAXERI
          1         0         0      4096      2048      4096
     MAXROW       MDI    MXBASE    MXTRFR    NSOLUT     NSTCI     NSTOP
        200        50        50        80         1         1       100
     GENZRO    THRCON    THRENE    THRERI    THRGEN    THRWGT    REFWGT
  1.000D-12 1.000D-06-1.000D+00 1.000D-12 1.000D-08 1.000D-06       F
      NOSYM    PARAIO    DOORD0    DELSCR
          1         T         T         F

 INTRUDER STATE FREE TECHNIQUE WILL BE USED,
 WITH PARAMETERS:   0.020000 (SPIN-FREE) AND  0.100000 (SPIN-ORBIT) (A.U.)


 NOTE: MCQDPT RUNS CANNOT BE AO INTEGRAL DIRECT.
 AN AO INTEGRAL FILE WILL STILL BE GENERATED,
 BEFORE THE MCQDPT CALCULATION IS STARTED.

 THE WEIGHTS OF THE CAS STATES IN THE DENSITY MATRIX AVERAGING ARE
   1=  1.000000

     ------------------------------------------
     THE POINT GROUP IS C1 , NAXIS= 0, ORDER= 1
     ------------------------------------------

 -- VARIATIONAL SPACE WILL BE RESTRICTED TO PURE SPHERICAL HARMONICS ONLY --
 AFTER EXCLUDING CONTAMINANT COMBINATIONS FROM THE CARTESIAN GAUSSIAN BASIS
 SET, THE NUMBER OF SPHERICAL HARMONICS KEPT IN THE VARIATION SPACE IS  264

     DIMENSIONS OF THE SYMMETRY SUBSPACES ARE
 A   =  264

 ..... DONE SETTING UP THE RUN .....
 CPU     0: STEP CPU TIME=     0.05 TOTAL CPU TIME=        0.0 (    0.0 MIN)
 TOTAL WALL CLOCK TIME=        0.1 SECONDS, CPU UTILIZATION IS  35.71%

          ********************
          1 ELECTRON INTEGRALS
          ********************
 TIME TO DO   DIPOLE INTEGRALS=      0.02
 ...... END OF ONE-ELECTRON INTEGRALS ......
 CPU     0: STEP CPU TIME=     0.02 TOTAL CPU TIME=        0.1 (    0.0 MIN)
 TOTAL WALL CLOCK TIME=        0.2 SECONDS, CPU UTILIZATION IS  36.84%

          -------------
          GUESS OPTIONS
          -------------
          GUESS =HUCKEL            NORB  =       0          NORDER=       0
          MIX   =       F          PRTMO =       F          PUNMO =       F
          TOLZ  = 1.0E-08          TOLE  = 1.0E-05
          SYMDEN=       F          PURIFY=       F

 INITIAL GUESS ORBITALS GENERATED BY HUCKEL   ROUTINE.
 HUCKEL GUESS REQUIRES    633209 WORDS.

 STATISTICS FOR GENERATION OF SYMMETRY ORBITAL -Q- MATRIX
 NUMBER OF CARTESIAN ATOMIC ORBITALS=        281
 NUMBER OF SPHERICAL CONTAMINANTS DROPPED=    17
 NUMBER OF LINEARLY DEPENDENT MOS DROPPED=     0
 TOTAL NUMBER OF MOS IN VARIATION SPACE=     264

 GUESS=HUCKEL IS USUALLY A VERY BAD IDEA FOR SCFTYP=MCSCF   
 YOU PROBABLY SHOULD USE GUESS=MOREAD FOR THIS RUN!

 SYMMETRIES FOR INITIAL GUESS ORBITALS FOLLOW.   BOTH SET(S).
    71 ORBITALS ARE OCCUPIED (   21 CORE ORBITALS).
    22=A       23=A       24=A       25=A       26=A       27=A       28=A   
    29=A       30=A       31=A       32=A       33=A       34=A       35=A   
    36=A       37=A       38=A       39=A       40=A       41=A       42=A   
    43=A       44=A       45=A       46=A       47=A       48=A       49=A   
    50=A       51=A       52=A       53=A       54=A       55=A       56=A   
    57=A       58=A       59=A       60=A       61=A       62=A       63=A   
    64=A       65=A       66=A       67=A       68=A       69=A       70=A   
    71=A       72=A       73=A       74=A       75=A       76=A       77=A   
    78=A       79=A       80=A       81=A   
 ...... END OF INITIAL ORBITAL SELECTION ......
 CPU     0: STEP CPU TIME=     0.18 TOTAL CPU TIME=        0.2 (    0.0 MIN)
 TOTAL WALL CLOCK TIME=        0.4 SECONDS, CPU UTILIZATION IS  69.44%

                    ----------------------
                    AO INTEGRAL TECHNOLOGY
                    ----------------------
     S,P,L SHELL ROTATED AXIS INTEGRALS, REPROGRAMMED BY
        KAZUYA ISHIMURA (IMS) AND JOSE SIERRA (SYNSTAR).
     S,P,D,L SHELL ROTATED AXIS INTEGRALS PROGRAMMED BY
        KAZUYA ISHIMURA (INSTITUTE FOR MOLECULAR SCIENCE).
     S,P,D,F,G SHELL TO TOTAL QUARTET ANGULAR MOMENTUM SUM 5,
        ERIC PROGRAM BY GRAHAM FLETCHER (ELORET AND NASA ADVANCED
        SUPERCOMPUTING DIVISION, AMES RESEARCH CENTER).
     S,P,D,F,G,L SHELL GENERAL RYS QUADRATURE PROGRAMMED BY
        MICHEL DUPUIS (PACIFIC NORTHWEST NATIONAL LABORATORY).
 DIRECT TRANSFORMATION SKIPS AO INTEGRAL STORAGE ON DISK.
  ...... END OF TWO-ELECTRON INTEGRALS .....
 STEP CPU TIME =     0.01 TOTAL CPU TIME =        0.3 (    0.0 MIN)
 TOTAL WALL CLOCK TIME=        0.4 SECONDS, CPU UTILIZATION IS  68.42%

          -----------------
          MCSCF CALCULATION
          -----------------

 ----- NUCLEAR ENERGY ----- =      1213.2990407358

          -----------------------     ----------------------------
          GUGA DISTINCT ROW TABLE     WRITTEN BY B.R.BROOKS,P.SAXE
          -----------------------     ----------------------------

      GROUP=C1           NPRT=       0
       FORS=       T   INTACT=       F
       FOCI=       F   MXNINT=   50000
       SOCI=       F   MXNEME=   10000
     IEXCIT=       0

      -CORE-    -INTERNAL-  -EXTERNAL-
     NFZC=   0   NDOC=   6   NEXT=   0
     NMCC=  59   NAOS=   0   NFZV=   0
                 NBOS=   0
                 NALP=   0
                 NVAL=   6

 THE MAXIMUM ELECTRON EXCITATION WILL BE  12

 SYMMETRIES FOR THE  59 CORE,  12 ACTIVE,   0 EXTERNAL MO-S ARE
     CORE= A     A     A     A     A     A     A     A     A     A   
           A     A     A     A     A     A     A     A     A     A   
           A     A     A     A     A     A     A     A     A     A   
           A     A     A     A     A     A     A     A     A     A   
           A     A     A     A     A     A     A     A     A     A   
           A     A     A     A     A     A     A     A     A   
   ACTIVE= A     A     A     A     A     A     A     A     A     A   
           DOC   DOC   DOC   DOC   DOC   DOC   VAL   VAL   VAL   VAL 
   ACTIVE= A     A   
           VAL   VAL 

 MOLECULAR CHARGE          =    0
 NUMBER OF ALPHA ELECTRONS =   65
 NUMBER OF  BETA ELECTRONS =   65

 THE ELECTRONIC STATE IS  1-A   

 THE DISTINCT ROW TABLE HAS       140 ROWS.
  THE WAVEFUNCTION CONTAINS    226512 WALKS (CSF-S).

 TOTAL NUMBER OF INTEGRALS =       3599
 NUMBER OF INTEGRALS/GROUP =       3599
 NUMBER OF INTEGRAL GROUPS =          1
 MAXIMUM RECORD SIZES ARE  226512 FOR UNIT 11  226512 FOR UNIT 12
                           226512 FOR UNIT 15   30001 FOR UNIT 16
 ...... END OF -DRT- GENERATION ...... 
 CPU     0: STEP CPU TIME=     1.50 TOTAL CPU TIME=        1.8 (    0.0 MIN)
 TOTAL WALL CLOCK TIME=        1.9 SECONDS, CPU UTILIZATION IS  93.12%

 EVALUATING EXCHANGE INTEGRALS FOR DIRECT INTEGRAL TRANSFORMATION
 SCHWARZ INEQUALITY OVERHEAD:     31921 INTEGRALS, T=        0.17

     --------------------------------------------
     PARTIAL TWO ELECTRON INTEGRAL TRANSFORMATION
     --------------------------------------------

 NUMBER OF CORE MOLECULAR ORBITALS     =   59
 NUMBER OF OCCUPIED MOLECULAR ORBITALS =   71
 TOTAL NUMBER OF MOLECULAR ORBITALS    =  264
 TOTAL NUMBER OF ATOMIC ORBITALS       =  281
 THRESHOLD FOR KEEPING TRANSFORMED 2E- INTEGRALS = 1.000E-09

 -------------------------------     ------------------------------
 DISTRIBUTED DATA TRANSFORMATION     PROGRAM WRITTEN BY G. FLETCHER
 -------------------------------     ------------------------------

 THE DISTRIBUTED MEMORY REQUIRED FOR THIS STEP IS MEMDDI=   345 MWORDS
 CREATING DISTRIBUTED STORAGE FOR [VIR OCC|VIR OCC] INTEGRALS
 DDI: Creating Array [0] - 78961 x 2556 = 201824316 words.
 CREATING DISTRIBUTED STORAGE FOR [VIR OCC|OCC OCC] INTEGRALS
 DDI: Creating Array [1] - 193 x 181476 = 35024868 words.
 CREATING DISTRIBUTED STORAGE FOR [OCC OCC|OCC OCC] INTEGRALS
 DDI: Creating Array [2] - 2556 x 2556 = 6533136 words.
 CREATING DISTRIBUTED STORAGE FOR [VIR VIR|OCC OCC] INTEGRALS
 DDI: Creating Array [3] - 39621 x 2556 = 101271276 words.
 FOR    4 PROCESSORS, THE REPLICATED MEMORY NEEDED IS   2326986 WORDS.
 SCHWARZ INEQUALITY OVERHEAD:     31921 INTEGRALS, T=        0.01

      DIRECT 4-INDEX TRANSFORMATION 
      SCHWARZ INEQUALITY TEST SKIPPED   12022307 INTEGRAL BLOCKS
 ----- FROZEN CORE ENERGY =     -2326.9358188927
 ... END OF INTEGRAL TRANSFORMATION ...
 CPU     0: STEP CPU TIME=    92.03 TOTAL CPU TIME=       93.8 (    1.6 MIN)
 TOTAL WALL CLOCK TIME=       98.1 SECONDS, CPU UTILIZATION IS  95.66%

          ------------------------
          GUGA-CI INTEGRAL SORTING
          ------------------------

     52893 WORDS NEEDED TO SORT           3599 GUGA INTEGRALS IN MEMORY
 400000000 WORDS ARE AVAILABLE
 CHOOSING IN-MEMORY SORTING...
 IN CORE ALGORITHM SORTED             78 NON-ZERO 1E- INTEGRALS
 IN CORE ALGORITHM SORTED           3081 NON-ZERO 2E- INTEGRALS
 ...... END OF INTEGRAL SORTING ...... 
 CPU     0: STEP CPU TIME=     0.02 TOTAL CPU TIME=       93.8 (    1.6 MIN)
 TOTAL WALL CLOCK TIME=       98.1 SECONDS, CPU UTILIZATION IS  95.66%

 -------------------------     ---------------------------------------
 ENERGY MATRIX CALCULATION     WRITTEN BY B.R.BROOKS,W.D.LAIDIG,P.SAXE
 -------------------------     ---------------------------------------

 COMPUTING THE HAMILTONIAN FOR THE    226512 CSF-S...

   294583221 IS THE TOTAL NUMBER OF GENERATED LOOPS
   294583221 WERE CREATED BY THE LOOP-DRIVEN ALGORITHM
           0 WERE CREATED IMPLICITLY

   277771098 IS THE TOTAL NUMBER OF PROCESSED LOOPS
     1047455     DIAGONAL LOOPS ARE STORED ON WORK15 IN    27 BUFFERS OF  10000 ELEMENTS.
   276723643 OFF DIAGONAL LOOPS ARE STORED ON WORK16 IN  6919 BUFFERS OF  10000 ELEMENTS.
 ...... END OF ENERGY MATRIX CALCULATION ...... 
 CPU     0: STEP CPU TIME=    31.27 TOTAL CPU TIME=      125.1 (    2.1 MIN)
 TOTAL WALL CLOCK TIME=      129.5 SECONDS, CPU UTILIZATION IS  96.59%

          -----------------------------------------
          DAVIDSON METHOD CI-MATRIX DIAGONALIZATION
                   WRITTEN BY STEVE ELBERT
          -----------------------------------------
 NUMBER OF STATES REQUESTED =     1
 MAX. NUMB. OF EXPAN. VEC   =    30
 MAX. NUMB. IMPROVED STATES =     1
 MAX. NUMB. OF ITERATIONS   =    50
 CONVERGENCE CRITERION      =    1.0E-06

 CHOOSING OUT OF MEMORY STORAGE OF HAMILTONIAN,
 AND IN MEMORY STORAGE OF TRIAL VECTORS.

 NUMBER OF WORDS AVAILABLE =  400000000
 NUMBER OF WORDS USED      =   15661234
 ENERGY MATRIX BUFFER SIZE =      10000

 ITER. NO.JUST IMPROVED    ENERGY AND STATE
   0   7(MAX.TOL.STATE)  -1130.818597440  1
   1   6  0.61125774  5  -1130.952215822  1
   2   5  0.40978823  4  -1130.999895073  1
   3   4  0.21523258  3  -1131.013669330  1
   4   3  0.07059526  1  -1131.017721659  1
   5   2  0.03048856  1  -1131.018599183  1
   6   1  0.01249932  1  -1131.018774169  1
   7   1  0.00552997  1  -1131.018809167  1
   8   1  0.00247637  1  -1131.018816110  1
   9   1  0.00114213  1  -1131.018817524  1
  10   1  0.00045939  1  -1131.018817788  1
  11   1  0.00042134  1  -1131.018817926  1
  12   1  0.00020608  1  -1131.018817969  1
  13   1  0.00010638  1  -1131.018817980  1
  14   1  0.00005538  1  -1131.018817983  1
  15   1  0.00002956  1  -1131.018817984  1
  16   1  0.00001469  1  -1131.018817984  1
  17   1  0.00000731  1  -1131.018817984  1
  18   1  0.00000340  1  -1131.018817984  1
  19   1  0.00000177  1  -1131.018817984  1
  20   1  0.00000133  1  -1131.018817984  1
  21   1  0.00000076  1  -1131.018817984  1

 STATE #    1  ENERGY =   -1131.018817984

      CSF      COEF    OCCUPANCY (IGNORING CORE)
      ---      ----    --------- --------- -----
        1   -0.315703  222222000000
        6   -0.061499  212222000001
       29    0.132209  222221000010
       33   -0.163820  212222000010
     2521   -0.099205  222221001000
    13862    0.659165  222212010000
    13863   -0.058658  222122010000
    13864   -0.110392  221222010000
    13865    0.064816  212222010000
    13866   -0.234049  122222010000
    13867   -0.099787  222211010001
    13874   -0.124387  212212010001
    13883   -0.053358  222211010001
    13891    0.069856  212212010001
    13973   -0.166499  222211010010
    13977    0.058885  122221010010
    13980   -0.241742  212212010010
    13987   -0.092964  112222010010
    14184   -0.077570  222211010010
    14192    0.131910  212212010010
    19909    0.088155  222211011000
    19916   -0.061723  212212011000
    41587   -0.082199  222202020000
    41588    0.100759  222112020000
    41589    0.137094  221212020000
    41590   -0.107541  212212020000
    41591    0.078375  122212020000
    60985    0.118490  222221100000
    88705    0.068349  222211110000
 ...... END OF CI-MATRIX DIAGONALIZATION ......
 CPU     0: STEP CPU TIME=   140.25 TOTAL CPU TIME=      265.3 (    4.4 MIN)
 TOTAL WALL CLOCK TIME=      270.4 SECONDS, CPU UTILIZATION IS  98.13%

          -------------------------------------
          2-PARTICLE DENSITY MATRIX CALCULATION
          -------------------------------------
 2 BODY DENSITY IS AN AVERAGE OF  1 STATE(S).
   STATE    WEIGHT          ENERGY
     1    1.000000    -1131.0188179844
    294583221 -DM2- LOOPS WERE GENERATED
    294583221 WERE CREATED BY THE LOOP-DRIVEN ALGORITHM
            0 WERE CREATED IMPLICITLY
          1 RECORDS OF LENGTH 50000 WRITTEN TO FILE 15
 ...... END OF 2-PARTICLE DENSITY MATRIX CALCULATION ......
 CPU     0: STEP CPU TIME=    31.93 TOTAL CPU TIME=      297.3 (    5.0 MIN)
 TOTAL WALL CLOCK TIME=      302.5 SECONDS, CPU UTILIZATION IS  98.27%

          ----------------------------------
          2-PARTICLE DENSITY MATRIX LABELING
          ----------------------------------
      99124 WORDS NEEDED TO LABEL DM2 MATRIX
          1 RECORDS OF LENGTH 50000  READ FROM FILE 15
          1 RECORDS OF LENGTH 15000 WRITTEN TO FILE 16
 ...... END OF 2-PARTICLE DENSITY MATRIX LABELING ......
 CPU     0: STEP CPU TIME=     0.29 TOTAL CPU TIME=      297.5 (    5.0 MIN)
 TOTAL WALL CLOCK TIME=      302.8 SECONDS, CPU UTILIZATION IS  98.27%

          --------------
          -DM2- ORDERING
          --------------
      33160 WORDS NEEDED ( 400000000 AVAILABLE) TO ORDER DM2 IN MEMORY
 CHOOSING IN MEMORY ORDERING...
                               1 RECORDS OF LENGTH 15000  READ FROM FILE 16
       3081 DM2 VALUES IN      1 RECORDS OF LENGTH 15000 WRITTEN TO FILE 15
 ...... END OF -DM2- ORDERING ...... 
 CPU     0: STEP CPU TIME=     0.00 TOTAL CPU TIME=      297.5 (    5.0 MIN)
 TOTAL WALL CLOCK TIME=      302.8 SECONDS, CPU UTILIZATION IS  98.27%

     --------------------------------     -----------------------------
     MCHF NEWTON-RAPHSON OPTIMIZATION     CODE WRITTEN BY MICHEL DUPUIS
     --------------------------------     -----------------------------
     PARALLEL VERSION WRITTEN BY G. FLETCHER (ELORET)
     NASA ADVANCED SUPERCOMPUTING DIVISION, AMES RESEARCH CENTER

 NUMBER OF INDEPENDENT ORBITAL ROTATION PARAMETERS = 14434
 ..... DONE SOLVING NEWTON-RAPHSON EQUATIONS .....
 CPU     0: STEP CPU TIME=   192.89 TOTAL CPU TIME=      490.4 (    8.2 MIN)
 TOTAL WALL CLOCK TIME=      497.8 SECONDS, CPU UTILIZATION IS  98.52%
 ..... DONE WITH NTN-RPH ORBITAL ROTATIONS ..... 
 CPU     0: STEP CPU TIME=     0.06 TOTAL CPU TIME=      490.5 (    8.2 MIN)
 TOTAL WALL CLOCK TIME=      497.9 SECONDS, CPU UTILIZATION IS  98.52%
 MAXIMUM MEMORY USED BY NTN-RPH CODE WAS   1648907 WORDS.

 ITER     TOTAL ENERGY      DEL(E)  LAGRANGIAN ASYMMETRY   SQCDF  MICIT   DAMP
   1    -1131.018817984 -0.018817984  0.560804  149    5 2.168E-01  1   0.0000
   2    -1132.994819646 -0.976001662  0.143687  224   49 1.103E-01  1   0.0000
 EXCESSIVE NUMBER OF ITERATIONS IN -NTNDVD- DURING AUGMENTED HESSIAN MATRIX DIAGONALIZATION. STOP
 CVG =   0.6599E-04 CVGTOL =   0.1000E-04
   3    -1133.307471460 -0.312651814  0.018467   64   48 1.945E-01  1   0.0000
 EXCESSIVE NUMBER OF ITERATIONS IN -NTNDVD- DURING AUGMENTED HESSIAN MATRIX DIAGONALIZATION. STOP
 CVG =   0.9660E-04 CVGTOL =   0.1000E-04
   4    -1133.337142870 -0.029671410  0.013027   65   50 3.622E-01  1   0.0000
 EXCESSIVE NUMBER OF ITERATIONS IN -NTNDVD- DURING AUGMENTED HESSIAN MATRIX DIAGONALIZATION. STOP
 CVG =   0.1482E-03 CVGTOL =   0.1000E-04
   5    -1133.354384568 -0.017241698  0.007861   65   50 4.473E-01  1   0.0154
 EXCESSIVE NUMBER OF ITERATIONS IN -NTNDVD- DURING AUGMENTED HESSIAN MATRIX DIAGONALIZATION. STOP
 CVG =   0.1028E-03 CVGTOL =   0.1000E-04
   6    -1133.372508073 -0.018123506  0.006388   61   46 2.666E-01  1   0.0154
 EXCESSIVE NUMBER OF ITERATIONS IN -NTNDVD- DURING AUGMENTED HESSIAN MATRIX DIAGONALIZATION. STOP
 CVG =   0.3680E-04 CVGTOL =   0.1000E-04
   7    -1133.382816051 -0.010307978  0.002823   62   39 5.000E-01  1   0.0050
 EXCESSIVE NUMBER OF ITERATIONS IN -NTNDVD- DURING AUGMENTED HESSIAN MATRIX DIAGONALIZATION. STOP
 CVG =   0.1595E-04 CVGTOL =   0.1000E-04
   8    -1133.385923157 -0.003107105  0.018200   67   40 5.000E-01  1   0.0000
   9    -1133.398947204 -0.013024048  0.020099   67   22 3.800E-01  1   0.2000
  10    -1133.417686523 -0.018739319  0.009817   63   54 3.285E-01  1   0.2000
 EXCESSIVE NUMBER OF ITERATIONS IN -NTNDVD- DURING AUGMENTED HESSIAN MATRIX DIAGONALIZATION. STOP
 CVG =   0.3970E-04 CVGTOL =   0.1000E-04
  11    -1133.431708615 -0.014022092  0.008075  177   63 2.403E-01  1   0.1120
 EXCESSIVE NUMBER OF ITERATIONS IN -NTNDVD- DURING AUGMENTED HESSIAN MATRIX DIAGONALIZATION. STOP
 CVG =   0.2757E-03 CVGTOL =   0.1000E-04
  12    -1133.440499344 -0.008790730  0.005149   68   40 1.899E-01  1   0.0440
 EXCESSIVE NUMBER OF ITERATIONS IN -NTNDVD- DURING AUGMENTED HESSIAN MATRIX DIAGONALIZATION. STOP
 CVG =   0.5405E-03 CVGTOL =   0.1000E-04
  13    -1133.443960319 -0.003460974  0.002816   68   40 2.918E-01  1   0.0000
 EXCESSIVE NUMBER OF ITERATIONS IN -NTNDVD- DURING AUGMENTED HESSIAN MATRIX DIAGONALIZATION. STOP
 CVG =   0.7112E-04 CVGTOL =   0.1000E-04
  14    -1133.446318735 -0.002358416  0.001357   60   42 1.671E-01  1   0.0000
  15    -1133.447694565 -0.001375831  0.000786   60   42 3.349E-02  1   0.0000
  16    -1133.448051481 -0.000356916  0.000345  249   66 5.918E-03  1   0.0000
  17    -1133.448132711 -0.000081230  0.000180  249   66 1.954E-03  1   0.0000
  18    -1133.448159909 -0.000027198  0.000103  249   66 9.038E-04  1   0.0000
  19    -1133.448172361 -0.000012452  0.000066  249   66 5.166E-04  1   0.0000
  20    -1133.448179401 -0.000007040  0.000066   68   33 3.268E-04  1   0.0000
  21    -1133.448183911 -0.000004510  0.000096  247   63 2.252E-04  1   0.0000
  22    -1133.448187045 -0.000003135  0.000046   64    9 1.639E-04  1   0.0000
  23    -1133.448189353 -0.000002308  0.000033   67    9 1.162E-04  1   0.0000
  24    -1133.448191085 -0.000001732  0.000031  152   60 8.807E-05  1   0.0000
  25    -1133.448192443 -0.000001358  0.000029  152   60 7.340E-05  1   0.0000
  26    -1133.448193585 -0.000001141  0.000023  152   60 5.890E-05  1   0.0000
  27    -1133.448194544 -0.000000959  0.000022  152   60 5.315E-05  1   0.0000
  28    -1133.448195412 -0.000000868  0.000046  193   61 5.267E-05  1   0.0000
  29    -1133.448196262 -0.000000850  0.000023  218   61 5.181E-05  1   0.0000
  30    -1133.448197107 -0.000000845  0.000026   68   27 5.549E-05  1   0.0000
  31    -1133.448198001 -0.000000894  0.000022  152   60 6.671E-05  1   0.0000
  32    -1133.448199028 -0.000001027  0.000024  114   60 8.138E-05  1   0.0000
  33    -1133.448200258 -0.000001230  0.000056   68   13 1.070E-04  1   0.0000
  34    -1133.448201823 -0.000001566  0.000045   68   32 1.492E-04  1   0.0000
  35    -1133.448203950 -0.000002126  0.000035  114   60 2.227E-04  1   0.0000
  36    -1133.448207032 -0.000003082  0.000078   68   32 3.197E-04  1   0.0000
  37    -1133.448211607 -0.000004575  0.000133  168   61 5.864E-04  1   0.0000
  38    -1133.448219618 -0.000008011  0.000070  114   60 1.070E-03  1   0.0000
  39    -1133.448234563 -0.000014945  0.000107  114   60 2.280E-03  1   0.0000
  40    -1133.448267000 -0.000032437  0.000156  184   66 5.799E-03  1   0.0000
  41    -1133.448351956 -0.000084957  0.000272  184   66 1.818E-02  1   0.0000
  42    -1133.448631550 -0.000279594  0.000537  184   66 6.035E-02  1   0.0000
  43    -1133.449644907 -0.001013357  0.001057  184   66 9.359E-02  1   0.0000
  44    -1133.451477229 -0.001832321  0.001135  184   66 4.547E-02  1   0.0000
  45    -1133.452431320 -0.000954091  0.000615  184   60 1.436E-02  1   0.0000
  46    -1133.452688300 -0.000256980  0.000328  184   60 6.451E-03  1   0.0000
  47    -1133.452761319 -0.000073019  0.000201  184   60 4.901E-03  1   0.0000
  48    -1133.452799726 -0.000038407  0.000144  120   60 3.503E-03  1   0.0000
  49    -1133.452824926 -0.000025199  0.000105   67   27 2.115E-03  1   0.0000
  50    -1133.452840092 -0.000015166  0.000087   67   27 1.098E-03  1   0.0000
  51    -1133.452848224 -0.000008132  0.000066   67   27 5.502E-04  1   0.0000
  52    -1133.452852287 -0.000004063  0.000125   68   20 2.350E-04  1   0.0000
  53    -1133.452854102 -0.000001815  0.000033   67   27 1.018E-04  1   0.0000
  54    -1133.452854909 -0.000000807  0.000026   69   13 4.490E-05  1   0.0000
  55    -1133.452855267 -0.000000358  0.000040   75   63 1.914E-05  1   0.0000
  56    -1133.452855430 -0.000000163  0.000025   64    9 8.365E-06  1   0.0000
  57    -1133.452855502 -0.000000071  0.000016   66    9 3.422E-06  1   0.0000
  58    -1133.452855532 -0.000000031  0.000017  260   61 1.516E-06  1   0.0000
  59    -1133.452855546 -0.000000013  0.000008   66   36 6.322E-07  1   0.0000
  60    -1133.452855546  0.000000000  0.000008   66   36 6.395E-07  1   0.0000

          --------------------
          LAGRANGIAN CONVERGED
          --------------------

 FINAL MCSCF ENERGY IS    -1133.4528555456 AFTER  60 ITERATIONS

 -MCCI- BASED ON OPTIMIZED ORBITALS
 ----------------------------------

 PLEASE NOTE: IF THE ACTIVE ORBITALS ARE CANONICALIZED BELOW,
 THE FOLLOWING CI EXPANSION COEFFICIENTS AND THE DENSITY DO NOT
 CORRESPOND TO THE PRINTED ORBITALS.  THE PRINTED EXPANSIONS MATCH
 THE ORBITALS USED DURING THE LAST ITERATION.  IF YOU WISH TO SEE
 CI EXPANSIONS BASED ON THE CANONICAL (OR NATURAL) ORBITALS, YOU
 MUST RUN A CI CALCULATION WITH THAT ORBITAL CHOICE READ IN $VEC.

 STATE #    1  ENERGY =   -1133.452855546

      CSF      COEF    OCCUPANCY (IGNORING CORE)
      ---      ----    --------- --------- -----
        1   -0.313328  222222000000
       29    0.099360  222221000010
       33   -0.152033  212222000010
     2521   -0.057367  222221001000
     2525   -0.052532  212222001000
     8580    0.052234  222022002000
    13862    0.650274  222212010000
    13864   -0.086717  221222010000
    13865    0.055776  212222010000
    13866   -0.188020  122222010000
    13867   -0.093411  222211010001
    13874   -0.089394  212212010001
    13883   -0.059396  222211010001
    13973   -0.137741  222211010010
    13980   -0.241880  212212010010
    13987   -0.070965  112222010010
    14184   -0.073612  222211010010
    14192    0.142913  212212010010
    19909    0.072811  222211011000
    19916   -0.124486  212212011000
    20383    0.074162  222012011010
    20390   -0.057752  202212011010
    27478    0.068663  212212011000
    32801    0.109169  222012012000
    41588    0.089168  222112020000
    41589    0.106342  221212020000
    41590   -0.102966  212212020000
    41639   -0.052231  211212020001
    41647   -0.054069  211212020001
    60985    0.050221  222221100000
    88705    0.066895  222211110000
   102065   -0.075778  222012111000

 DENSITY MATRIX OVER ACTIVE MO-S

             1           2           3           4           5

    1    1.9153091
    2   -0.0120305   1.7238754
    3   -0.0397218  -0.0270343   1.9334023
    4    0.0212036   0.0299742   0.0141979   1.8539519
    5    0.2104699   0.0680072   0.1053651  -0.0658876   1.2544346
    6   -0.0187425   0.0790251   0.0024917  -0.0077035   0.0155692
    7   -0.0363539   0.0619063   0.0107873   0.0052813  -0.0112663
    8   -0.1861086  -0.1347489  -0.1823553   0.1238921   0.5781183
    9    0.0272812   0.2615321  -0.0166479  -0.0085700   0.0061341
   10    0.0081399  -0.0151061   0.0305615  -0.0020938  -0.0083090
   11   -0.0236309   0.4714069   0.0007753  -0.0487007   0.0164465
   12   -0.0000841   0.1537076  -0.0100572  -0.0159720   0.0153838

             6           7           8           9          10

    6    1.8581865
    7   -0.1200077   0.0589103
    8   -0.0076304  -0.0102908   0.8951815
    9    0.1424153   0.0272084  -0.0385311   0.1614188
   10    0.0073033   0.0002157  -0.0217389  -0.0008781   0.0162393
   11   -0.2298151   0.0784653  -0.0406490   0.0669306  -0.0072044
   12   -0.1629028   0.0054609  -0.0055559   0.0046828  -0.0046165

            11          12

   11    0.2437074
   12    0.0770605   0.0853831

 FORMING THE "STANDARD FOCK OPERATOR" IN DIRECT AO INTEGRAL MODE...
    59 FILLED,   12 ACTIVE, AND  193 VIRTUAL ORBITALS  WILL BE CANONICALIZED

          ----------------------
          MCSCF NATURAL ORBITALS
          ----------------------

                      1          2          3          4          5
                  -91.9526   -20.6173   -20.6129   -15.8138   -15.6184
                     A          A          A          A          A   
    1  C  1  S    0.000022   0.000000   0.000000  -0.000001   0.000048
    2  C  1  S    0.000147  -0.000003  -0.000002  -0.000001  -0.000444
    3  C  1  X    0.000076   0.000000  -0.000002   0.000000   0.000256
    4  C  1  Y   -0.000035   0.000002   0.000000  -0.000002   0.000891
    5  C  1  Z    0.000000   0.000000   0.000000   0.000006   0.000419
    6  C  1  S   -0.001301  -0.000036   0.000024   0.000091   0.005653
    7  C  1  X   -0.000872   0.000013  -0.000016   0.000067   0.001799
    8  C  1  Y    0.001083   0.000012  -0.000016  -0.000019  -0.002354
    9  C  1  Z   -0.000833  -0.000016   0.000021  -0.000015   0.002638
   10  C  1 XX    0.000015  -0.000001   0.000000   0.000000   0.000227
   11  C  1 YY    0.000007   0.000000   0.000000  -0.000001  -0.000171
   12  C  1 ZZ   -0.000023   0.000001   0.000000   0.000000  -0.000055
   13  C  1 XY    0.000002  -0.000001   0.000001  -0.000001  -0.000311
   14  C  1 XZ    0.000040   0.000001  -0.000001  -0.000002   0.000202
   15  C  1 YZ    0.000091   0.000001  -0.000002  -0.000003   0.000368
   16  N  2  S   -0.000021   0.000001  -0.000001   0.000004   0.996626
   17  N  2  S   -0.000168   0.000008  -0.000012   0.000022   0.023554
   18  N  2  X   -0.000003   0.000000  -0.000001   0.000001   0.000999
   19  N  2  Y    0.000007   0.000000   0.000002   0.000001   0.003759
   20  N  2  Z   -0.000004   0.000001  -0.000004  -0.000006   0.002295
   21  N  2  S    0.001526  -0.000080   0.000065  -0.000219  -0.019769
   22  N  2  X    0.000620  -0.000028   0.000041  -0.000076  -0.002899
   23  N  2  Y    0.000232   0.000045  -0.000042   0.000041   0.002948
   24  N  2  Z   -0.000512  -0.000074   0.000053  -0.000036   0.001539
   25  N  2 XX   -0.000007   0.000000   0.000003   0.000002  -0.000149
   26  N  2 YY   -0.000007   0.000000  -0.000002  -0.000003   0.000081
   27  N  2 ZZ    0.000015   0.000000  -0.000001   0.000001   0.000067
   28  N  2 XY    0.000023   0.000002  -0.000005   0.000000   0.000016
   29  N  2 XZ   -0.000016  -0.000006   0.000005  -0.000005   0.000054
   30  N  2 YZ   -0.000037   0.000001  -0.000003   0.000002   0.000079
   31  C  3  S    0.000004   0.000006  -0.000002   0.000000   0.000252
   32  C  3  S    0.000062   0.000075  -0.000017   0.000008  -0.000605
   33  C  3  X    0.000053  -0.000002  -0.000002   0.000003   0.000626
   34  C  3  Y   -0.000011  -0.000013   0.000000   0.000001   0.000668
   35  C  3  Z   -0.000009   0.000029   0.000001   0.000003   0.001165
   36  C  3  S    0.000092   0.000417  -0.000065   0.000435   0.005822
   37  C  3  X   -0.000229  -0.000125   0.000035  -0.000230  -0.003145
   38  C  3  Y   -0.000370  -0.000002  -0.000045   0.000057   0.003006
   39  C  3  Z    0.000836   0.000112   0.000068   0.000045  -0.002879
   40  C  3 XX    0.000002   0.000003  -0.000003   0.000009  -0.000168
   41  C  3 YY   -0.000007  -0.000002  -0.000002  -0.000008   0.000231
   42  C  3 ZZ    0.000005  -0.000001   0.000005  -0.000001  -0.000063
   43  C  3 XY    0.000014  -0.000003   0.000005  -0.000007   0.000151
   44  C  3 XZ   -0.000026   0.000003  -0.000011  -0.000003  -0.000498
   45  C  3 YZ    0.000007   0.000001   0.000000  -0.000002   0.000153
   46  S  4  S    0.996673   0.000000   0.000000  -0.000001   0.000013
   47  S  4  S    0.012273   0.000000   0.000000  -0.000001   0.000009
   48  S  4  X   -0.000123   0.000000   0.000000   0.000001   0.000032
   49  S  4  Y    0.000052   0.000000   0.000000  -0.000002  -0.000034
   50  S  4  Z    0.000000  -0.000001   0.000000   0.000002  -0.000030
   51  S  4  S   -0.004098  -0.000002  -0.000005  -0.000018   0.000404
   52  S  4  X    0.000431   0.000000  -0.000001  -0.000005  -0.000213
   53  S  4  Y   -0.000157  -0.000001   0.000002   0.000010   0.000154
   54  S  4  Z   -0.000035   0.000003  -0.000001  -0.000012   0.000065
   55  S  4  S    0.001962  -0.000006   0.000010   0.000027   0.000027
   56  S  4  X   -0.000268   0.000006   0.000000   0.000001   0.000036
   57  S  4  Y   -0.000036  -0.000005  -0.000005  -0.000029   0.000136
   58  S  4  Z    0.000220   0.000000   0.000006   0.000041   0.000014
   59  S  4 XX   -0.000071  -0.000001   0.000000   0.000001   0.000015
   60  S  4 YY   -0.000002   0.000000  -0.000001  -0.000002   0.000003
   61  S  4 ZZ    0.000073   0.000001   0.000001   0.000001  -0.000018
   62  S  4 XY    0.000099   0.000002   0.000000   0.000001  -0.000038
   63  S  4 XZ   -0.000075  -0.000002  -0.000001  -0.000003   0.000078
   64  S  4 YZ   -0.000018  -0.000001  -0.000001   0.000000   0.000042
   65  C  5  S   -0.000036  -0.000001   0.000000   0.000001  -0.000024
   66  C  5  S   -0.000060  -0.000005  -0.000002   0.000004   0.000128
   67  C  5  X    0.000033  -0.000001   0.000000   0.000000   0.000082
   68  C  5  Y    0.000003   0.000003   0.000001   0.000001  -0.000120
   69  C  5  Z   -0.000018  -0.000002  -0.000001   0.000001  -0.000028
   70  C  5  S    0.000446   0.000006   0.000013  -0.000075  -0.001633
   71  C  5  X    0.000282   0.000007  -0.000006   0.000049  -0.000127
   72  C  5  Y   -0.000870  -0.000017   0.000001   0.000014   0.000810
   73  C  5  Z    0.000848   0.000016   0.000004  -0.000039  -0.001497
   74  C  5 XX    0.000176   0.000001   0.000000  -0.000002   0.000088
   75  C  5 YY   -0.000045  -0.000001   0.000000   0.000002  -0.000012
   76  C  5 ZZ   -0.000131   0.000000   0.000000   0.000000  -0.000075
   77  C  5 XY   -0.000225   0.000000   0.000000  -0.000001  -0.000155
   78  C  5 XZ    0.000078  -0.000001   0.000000   0.000002   0.000073
   79  C  5 YZ   -0.000070   0.000000   0.000000   0.000000   0.000021
   80  N  6  S    0.000007   0.000002  -0.000002  -0.000018  -0.000656
   81  N  6  S    0.000071   0.000019  -0.000032  -0.000111  -0.000167
   82  N  6  X   -0.000006  -0.000008  -0.000007  -0.000010  -0.000081
   83  N  6  Y    0.000000   0.000020   0.000012   0.000016  -0.000121
   84  N  6  Z    0.000006  -0.000029  -0.000014  -0.000023  -0.000218
   85  N  6  S   -0.000792  -0.000272  -0.000348   0.000881   0.000937
   86  N  6  X   -0.000011  -0.000244   0.000106   0.000245   0.001018
   87  N  6  Y   -0.000112  -0.000170   0.000031  -0.000444  -0.000848
   88  N  6  Z    0.000249   0.000459  -0.000126   0.000614   0.000301
   89  N  6 XX    0.000015  -0.000019   0.000027  -0.000014   0.000128
   90  N  6 YY    0.000001   0.000004  -0.000014   0.000007  -0.000067
   91  N  6 ZZ   -0.000015   0.000014  -0.000013   0.000007  -0.000061
   92  N  6 XY   -0.000006   0.000013  -0.000023  -0.000017  -0.000017
   93  N  6 XZ    0.000005  -0.000007  -0.000003   0.000027  -0.000165
   94  N  6 YZ    0.000007  -0.000012  -0.000010  -0.000027  -0.000030
   95  C  7  S    0.000005  -0.000004  -0.000003  -0.000009   0.000003
   96  C  7  S    0.000040  -0.000048  -0.000030  -0.000170  -0.000106
   97  C  7  X   -0.000004  -0.000012   0.000014  -0.000028  -0.000020
   98  C  7  Y    0.000004  -0.000006  -0.000005   0.000052  -0.000109
   99  C  7  Z   -0.000009   0.000018  -0.000002  -0.000062   0.000114
  100  C  7  S   -0.000554   0.000429   0.000083  -0.000386  -0.001319
  101  C  7  X   -0.000379   0.002275  -0.001979   0.000900   0.001318
  102  C  7  Y    0.000120  -0.000056   0.000579  -0.000832  -0.000091
  103  C  7  Z    0.000057  -0.001307   0.000328   0.000786  -0.001010
  104  C  7 XX   -0.000012   0.000046   0.000006   0.000044   0.000037
  105  C  7 YY    0.000006  -0.000010  -0.000018  -0.000018  -0.000017
  106  C  7 ZZ    0.000006  -0.000036   0.000011  -0.000026  -0.000020
  107  C  7 XY    0.000007  -0.000023   0.000014   0.000007  -0.000014
  108  C  7 XZ    0.000006   0.000001  -0.000039  -0.000039   0.000046
  109  C  7 YZ    0.000001   0.000021  -0.000003   0.000037   0.000053
  110  C  8  S    0.000000  -0.000024  -0.000017  -0.000005  -0.000016
  111  C  8  S    0.000003  -0.000154  -0.000129  -0.000086  -0.000070
  112  C  8  X   -0.000001  -0.000027  -0.000002  -0.000141   0.000038
  113  C  8  Y    0.000004   0.000001   0.000043   0.000084   0.000055
  114  C  8  Z   -0.000004   0.000017  -0.000065  -0.000038   0.000030
  115  C  8  S   -0.000051   0.001592   0.001208  -0.002697   0.001100
  116  C  8  X    0.000042   0.001182   0.000084   0.000345   0.000859
  117  C  8  Y   -0.000082   0.000183  -0.001671   0.000494   0.000503
  118  C  8  Z    0.000091  -0.001055   0.002545  -0.000988  -0.001025
  119  C  8 XX    0.000003  -0.000016  -0.000028  -0.000018   0.000008
  120  C  8 YY    0.000000  -0.000016   0.000005  -0.000013  -0.000026
  121  C  8 ZZ   -0.000002   0.000032   0.000023   0.000031   0.000018
  122  C  8 XY    0.000000  -0.000011  -0.000033   0.000008   0.000020
  123  C  8 XZ   -0.000001  -0.000009   0.000036  -0.000016  -0.000047
  124  C  8 YZ    0.000003  -0.000055  -0.000071  -0.000036  -0.000008
  125  C  9  S    0.000000   0.000004  -0.000007  -0.000033   0.000004
  126  C  9  S    0.000003  -0.000032  -0.000163  -0.000315   0.000019
  127  C  9  X    0.000003  -0.000074  -0.000022   0.000005   0.000020
  128  C  9  Y   -0.000002   0.000067   0.000049   0.000013   0.000005
  129  C  9  Z    0.000001  -0.000062  -0.000060  -0.000029   0.000006
  130  C  9  S   -0.000045  -0.003612   0.002367   0.003664  -0.000035
  131  C  9  X    0.000041  -0.001857   0.003723   0.001096  -0.000691
  132  C  9  Y   -0.000008   0.000968  -0.002348   0.001559   0.000255
  133  C  9  Z   -0.000009  -0.000367   0.001358  -0.003051   0.000035
  134  C  9 XX    0.000001   0.000043   0.000121   0.000063  -0.000008
  135  C  9 YY    0.000000  -0.000045  -0.000053  -0.000097   0.000008
  136  C  9 ZZ   -0.000001   0.000001  -0.000068   0.000034   0.000000
  137  C  9 XY    0.000001   0.000037  -0.000008   0.000038  -0.000004
  138  C  9 XZ   -0.000002  -0.000100  -0.000079  -0.000182   0.000004
  139  C  9 YZ    0.000001   0.000026   0.000074  -0.000031  -0.000004
  140  C 10  S    0.000002   0.000021   0.000016   0.000032  -0.000003
  141  C 10  S    0.000016   0.000055   0.000005   0.000060  -0.000004
  142  C 10  X   -0.000002  -0.000024  -0.000057  -0.000037  -0.000022
  143  C 10  Y    0.000003   0.000079   0.000091   0.000080  -0.000052
  144  C 10  Z   -0.000003  -0.000112  -0.000108  -0.000101  -0.000052
  145  C 10  S   -0.000006  -0.001504  -0.000606   0.003955   0.000717
  146  C 10  X    0.000035  -0.006420   0.006659   0.003176  -0.000342
  147  C 10  Y   -0.000084  -0.000719  -0.001545  -0.006720  -0.000045
[...]
    13867   -0.051705  2+222-200000
    19914   -0.056102  2+-222+00-00
    41581    0.051412  202222200000
 CPU TIME TO GENERATE REFERENCE CI STATES =    186.65

 *** ONE PARTICLE DENSITY MATRIX OVER CANONICAL ORBITALS ***
                   1            2            3            4            5
     1  1.979859E+00
     2 -1.981726E-03 1.959660E+00
     3 -5.723417E-03 6.240491E-04 1.949553E+00
     4 -1.297593E-05 7.667220E-06 1.018905E-04 1.870372E+00
     5  8.736004E-03-6.788265E-03-5.807482E-03 5.402660E-05 1.914098E+00
     6  9.191964E-03 3.388778E-02-5.505962E-03 4.677509E-05 4.251353E-02
     7 -1.485246E-03-1.674642E-02-1.603236E-03 7.528388E-05-1.848450E-02
     8 -3.167635E-03 1.323457E-04-8.781737E-03-7.875142E-03 5.852994E-03
     9 -5.994404E-03-5.764799E-04-9.988502E-03 5.298055E-04-4.676820E-04
    10 -1.073925E-02 3.645906E-04-1.494496E-02 1.775034E-04 8.652373E-03
    11 -2.442599E-04-4.420481E-04-1.683958E-03 3.586924E-05 3.778588E-03
    12  1.616247E-04 3.880067E-03-3.891004E-03 1.751610E-05 2.666626E-03
                   6            7            8            9           10
     6  1.655649E+00
     7  1.436628E-01 3.758114E-01
     8  3.495413E-03 6.852670E-04 1.296092E-01
     9 -5.380751E-04-4.247782E-03-2.559026E-03 8.329774E-02
    10  2.353915E-03-9.194248E-05-1.720106E-03-4.380193E-03 5.775142E-02
    11 -7.149699E-03-6.991910E-03-5.977870E-04-9.730993E-04 4.413800E-04
    12  7.556796E-03 5.712629E-03-8.228408E-04-1.328944E-03 8.648478E-05
                  11           12
    11  1.504538E-02
    12 -1.405898E-03 9.293503E-03

 *** ORBITAL ENERGIES OF THE CANONICAL ORBITALS ***
 DOUBLY OCCUPIED ORBITALS:
   -9.195262E+01  -2.061732E+01  -2.061289E+01  -1.581381E+01  -1.561839E+01
   -1.559509E+01  -1.134963E+01  -1.130333E+01  -1.129819E+01  -1.127540E+01
   -1.126626E+01  -1.126605E+01  -1.125579E+01  -1.125466E+01  -1.125097E+01
   -1.123409E+01  -1.122707E+01  -8.965710E+00  -6.646635E+00  -6.646410E+00
   -6.643353E+00  -1.605903E+00  -1.397700E+00  -1.297564E+00  -1.218937E+00
   -1.184104E+00  -1.097392E+00  -1.084440E+00  -1.057441E+00  -9.749046E-01
   -9.702938E-01  -9.548522E-01  -9.198985E-01  -8.471386E-01  -8.196606E-01
   -8.054794E-01  -7.693898E-01  -7.569896E-01  -7.401400E-01  -7.292422E-01
   -7.146474E-01  -6.753589E-01  -6.501005E-01  -6.205257E-01  -6.093129E-01
   -6.013420E-01  -5.938750E-01  -5.889663E-01  -5.833193E-01  -5.509239E-01
   -5.475654E-01  -5.128598E-01  -5.086340E-01  -5.005360E-01  -4.970673E-01
   -4.946293E-01  -3.950996E-01  -3.803841E-01  -3.473647E-01
 ACTIVE ORBITALS:
   -6.480932E-01  -5.529815E-01  -4.654454E-01  -4.232863E-01  -3.285084E-01
   -2.789739E-01  -4.336756E-02   1.335582E-01   2.137051E-01   3.300240E-01
    8.387919E-01   1.090527E+00
 VIRTUAL ORBITALS:
    1.262651E-01   1.609881E-01   2.246000E-01   2.318386E-01   2.409142E-01
    2.629856E-01   2.738323E-01   2.858939E-01   3.063567E-01   3.074582E-01
    3.112646E-01   3.219123E-01   3.424357E-01   3.558080E-01   3.748481E-01
    3.908079E-01   4.037037E-01   4.189662E-01   4.380665E-01   4.465425E-01
    4.573611E-01   4.742470E-01   4.925756E-01   5.073018E-01   5.138291E-01
    5.349674E-01   5.530694E-01   5.731768E-01   5.869465E-01   6.036747E-01
    6.363414E-01   6.455506E-01   6.540852E-01   6.775761E-01   6.919331E-01
    7.034955E-01   7.058892E-01   7.306625E-01   7.459260E-01   7.571289E-01
    7.591940E-01   7.700207E-01   7.758227E-01   7.860559E-01   7.966455E-01
    8.229475E-01   8.263668E-01   8.322241E-01   8.386660E-01   8.417856E-01
    8.651757E-01   8.812798E-01   8.898350E-01   9.055452E-01   9.168397E-01
    9.397255E-01   9.531876E-01   9.590707E-01   9.889574E-01   1.007020E+00
    1.017734E+00   1.023053E+00   1.032602E+00   1.046899E+00   1.055108E+00
    1.069200E+00   1.079019E+00   1.080416E+00   1.088467E+00   1.098899E+00
    1.100176E+00   1.112712E+00   1.124387E+00   1.140504E+00   1.145669E+00
    1.163774E+00   1.172694E+00   1.180489E+00   1.187293E+00   1.190939E+00
    1.207951E+00   1.220608E+00   1.225446E+00   1.230013E+00   1.234987E+00
    1.244515E+00   1.248470E+00   1.259193E+00   1.263692E+00   1.274520E+00
    1.300098E+00   1.331276E+00   1.342261E+00   1.351607E+00   1.380900E+00
    1.403142E+00   1.445974E+00   1.467734E+00   1.471901E+00   1.487769E+00
    1.507386E+00   1.530614E+00   1.536872E+00   1.559856E+00   1.565687E+00
    1.582261E+00   1.616799E+00   1.631184E+00   1.643631E+00   1.650077E+00
    1.664971E+00   1.666401E+00   1.698082E+00   1.730773E+00   1.747200E+00
    1.754281E+00   1.793221E+00   1.834429E+00   1.878715E+00   1.906468E+00
    1.944560E+00   1.968649E+00   1.987478E+00   2.018781E+00   2.042811E+00
    2.061600E+00   2.067246E+00   2.079602E+00   2.091055E+00   2.093528E+00
    2.102768E+00   2.109067E+00   2.123500E+00   2.168432E+00   2.170752E+00
    2.179840E+00   2.194461E+00   2.206483E+00   2.209322E+00   2.244522E+00
    2.247651E+00   2.259840E+00   2.288971E+00   2.313261E+00   2.337777E+00
    2.390535E+00   2.396551E+00   2.418435E+00   2.425181E+00   2.457777E+00
    2.471704E+00   2.480761E+00   2.504824E+00   2.525031E+00   2.527486E+00
    2.548393E+00   2.564565E+00   2.582711E+00   2.600998E+00   2.611123E+00
    2.642608E+00   2.644724E+00   2.676819E+00   2.695222E+00   2.710739E+00
    2.731505E+00   2.753962E+00   2.755634E+00   2.817474E+00   2.867968E+00
    2.895220E+00   2.920451E+00   2.930051E+00   2.939914E+00   3.001028E+00
    3.020071E+00   3.033458E+00   3.049555E+00   3.081256E+00   3.092105E+00
    3.125948E+00   3.172810E+00   3.183276E+00   3.245930E+00   3.268661E+00
    3.292071E+00   3.332957E+00   3.434862E+00   3.493983E+00   3.562481E+00
    3.587541E+00   3.766950E+00   3.868518E+00
 CPU TIME TO GENERATE ORBITAL ENERGIES =      2.20

 DISCARDING NEGLIGIBLE GENERATORS
 STEP ONE:  ORIGINAL SPACE PRODUCTS=        73789 REDUCED TO        73789
 STEP TWO: NUMBER OF SPACE PRODUCTS=        73789 REDUCED TO        73789
 CONDENSED LABELS MADE FOR        226512 CSFS
 CPU TIME TO REDUCE GENERATORS TO MINIMUM =      8.52

 FINISHING SETUP FOR MRMP/MCQDPT CALCULATION.

 THE FROZEN CORE ENERGY IS    -1639.6408585996
 MAXIMUM MEMDDI THAT CAN BE USED IN THE PERTURBATION CALCULATION IS    95 MWORDS
    THE MEMDDI THAT WILL BE USED IN THE PERTURBATION CALCULATION IS    95 MWORDS
 PREPARING TRANSFORMED INTEGRALS FOR PT...
 TIME FOR FINISHING SETUPS =      6.98

 EVALUATING PERTURBATION THEORY CORRECTIONS TO HAMILTONIAN ELEMENTS.

 TIME FOR 0-BODY FORMULAE =    351.48
 TIME FOR 1-BODY FORMULAE =   1790.50
 TIME FOR 2-BODY FORMULAE =   2532.75
 TIME FOR 3-BODY FORMULAE =   2258.57
 TIME FOR 0-BODY FORMULAE INVOLVING 2 EXTERNAL ORBITALS=   1368.55
 TIME FOR 1-BODY FORMULAE INVOLVING 2 EXTERNAL ORBITALS=   1261.52
 TIME FOR 2-BODY FORMULAE INVOLVING 2 EXTERNAL ORBITALS=    926.23
 TIME FOR PERTURBATION TREATMENT =  10490.27

 SINGLE STATE MULTICONFIGURATIONAL PERTURBATION ENERGY (MRMP)

 #########################
 ###   MRMP2 RESULTS   ###
 #########################

 *** EFFECTIVE HAMILTONIAN (AT SECOND ORDER) ***
                   1
     1 -1.135704E+03

 *** ZEROTH ORDER ENERGIES ***
   STATE        0TH ORDER
     1     -730.4912232037

 *** DIAGONAL ELEMENTS OF EFFECTIVE HAMILTONIAN ***
   STATE                  2ND ORDER
     1   E(MRMP2)=    -1135.7042131026

 *** MRMP2 ENERGY ***
   STATE                       1ST ORDER                       2ND ORDER
     1     E(MCSCF)=    -1133.4528555602     E(MP2)=    -1135.7042131026

 THE UNPERTURBED CAS-CI STATE(S) WERE PRINTED ABOVE

 THE PERTURBED STATE IS THE SAME AS THE UNPERTURBED STATE,
 SINCE THE EFFECTIVE HAMILTONIAN IS OF DIMENSION ONE.
 ...... END OF MC-QDPT2 (MR-MP2) CALCULATION ......

 ..... DONE WITH MP2 ENERGY .....
 CPU     0: STEP CPU TIME= 11103.21 TOTAL CPU TIME=    46294.0 (  771.6 MIN)
 TOTAL WALL CLOCK TIME=    46747.3 SECONDS, CPU UTILIZATION IS  99.03%
             392841908  WORDS OF DYNAMIC MEMORY USED
 EXECUTION OF GAMESS TERMINATED NORMALLY Thu Aug  4 13:49:53 2016
 DDI: 1288738544 bytes (1229.0 MB / 153 MWords) used by master data server.

 ----------------------------------------
 CPU timing information for all processes
 ========================================
 0: 45415.238 + 878.914 = 46294.153
 1: 45467.729 + 836.124 = 46303.853
 2: 45425.642 + 892.727 = 46318.370
 3: 45493.379 + 830.999 = 46324.379
 4: 46555.761 + 25.505 = 46581.267
 5: 46546.92 + 27.125 = 46573.218
 6: 46551.973 + 30.957 = 46582.931
 7: 46558.197 + 24.977 = 46583.175
 ----------------------------------------
----- accounting info -----
Files used on the master node g8nodes1 were:
-rw-r--r-- 1 g4rosendo g4        2314 Aug  4 00:50 /scratch/916890.1.iqtc06.q/singletminimum_casscfISCsearchTSgeo631gdmcqdpt.F05
-rw-r--r-- 1 g4rosendo g4  3726248400 Aug  4 10:44 /scratch/916890.1.iqtc06.q/singletminimum_casscfISCsearchTSgeo631gdmcqdpt.F08
-rw-r--r-- 1 g4rosendo g4  3726248400 Aug  4 10:44 /scratch/916890.1.iqtc06.q/singletminimum_casscfISCsearchTSgeo631gdmcqdpt.F08.001
-rw-r--r-- 1 g4rosendo g4  3726248400 Aug  4 10:44 /scratch/916890.1.iqtc06.q/singletminimum_casscfISCsearchTSgeo631gdmcqdpt.F08.002
-rw-r--r-- 1 g4rosendo g4  3726248400 Aug  4 10:44 /scratch/916890.1.iqtc06.q/singletminimum_casscfISCsearchTSgeo631gdmcqdpt.F08.003
-rw-r--r-- 1 g4rosendo g4     9488800 Aug  4 13:49 /scratch/916890.1.iqtc06.q/singletminimum_casscfISCsearchTSgeo631gdmcqdpt.F10
-rw-r--r-- 1 g4rosendo g4     2103752 Aug  4 00:50 /scratch/916890.1.iqtc06.q/singletminimum_casscfISCsearchTSgeo631gdmcqdpt.F11
-rw-r--r-- 1 g4rosendo g4     2103752 Aug  4 00:50 /scratch/916890.1.iqtc06.q/singletminimum_casscfISCsearchTSgeo631gdmcqdpt.F11.001
-rw-r--r-- 1 g4rosendo g4     2103752 Aug  4 00:50 /scratch/916890.1.iqtc06.q/singletminimum_casscfISCsearchTSgeo631gdmcqdpt.F11.002
-rw-r--r-- 1 g4rosendo g4     2103752 Aug  4 00:50 /scratch/916890.1.iqtc06.q/singletminimum_casscfISCsearchTSgeo631gdmcqdpt.F11.003
-rw-r--r-- 1 g4rosendo g4     1812288 Aug  4 10:41 /scratch/916890.1.iqtc06.q/singletminimum_casscfISCsearchTSgeo631gdmcqdpt.F12
-rw-r--r-- 1 g4rosendo g4     1812288 Aug  4 10:41 /scratch/916890.1.iqtc06.q/singletminimum_casscfISCsearchTSgeo631gdmcqdpt.F12.001
-rw-r--r-- 1 g4rosendo g4     1812288 Aug  4 10:41 /scratch/916890.1.iqtc06.q/singletminimum_casscfISCsearchTSgeo631gdmcqdpt.F12.002
-rw-r--r-- 1 g4rosendo g4     1812288 Aug  4 10:41 /scratch/916890.1.iqtc06.q/singletminimum_casscfISCsearchTSgeo631gdmcqdpt.F12.003
-rw-r--r-- 1 g4rosendo g4      400008 Aug  4 10:40 /scratch/916890.1.iqtc06.q/singletminimum_casscfISCsearchTSgeo631gdmcqdpt.F14
-rw-r--r-- 1 g4rosendo g4      400008 Aug  4 10:40 /scratch/916890.1.iqtc06.q/singletminimum_casscfISCsearchTSgeo631gdmcqdpt.F14.001
-rw-r--r-- 1 g4rosendo g4      400008 Aug  4 10:40 /scratch/916890.1.iqtc06.q/singletminimum_casscfISCsearchTSgeo631gdmcqdpt.F14.002
-rw-r--r-- 1 g4rosendo g4      400008 Aug  4 10:40 /scratch/916890.1.iqtc06.q/singletminimum_casscfISCsearchTSgeo631gdmcqdpt.F14.003
-rw-r--r-- 1 g4rosendo g4      260472 Aug  4 10:41 /scratch/916890.1.iqtc06.q/singletminimum_casscfISCsearchTSgeo631gdmcqdpt.F15
-rw-r--r-- 1 g4rosendo g4      260472 Aug  4 10:41 /scratch/916890.1.iqtc06.q/singletminimum_casscfISCsearchTSgeo631gdmcqdpt.F15.001
-rw-r--r-- 1 g4rosendo g4      260472 Aug  4 10:41 /scratch/916890.1.iqtc06.q/singletminimum_casscfISCsearchTSgeo631gdmcqdpt.F15.002
-rw-r--r-- 1 g4rosendo g4      260472 Aug  4 10:41 /scratch/916890.1.iqtc06.q/singletminimum_casscfISCsearchTSgeo631gdmcqdpt.F15.003
-rw-r--r-- 1 g4rosendo g4      260472 Aug  4 10:41 /scratch/916890.1.iqtc06.q/singletminimum_casscfISCsearchTSgeo631gdmcqdpt.F16
-rw-r--r-- 1 g4rosendo g4      260472 Aug  4 10:41 /scratch/916890.1.iqtc06.q/singletminimum_casscfISCsearchTSgeo631gdmcqdpt.F16.001
-rw-r--r-- 1 g4rosendo g4      260472 Aug  4 10:41 /scratch/916890.1.iqtc06.q/singletminimum_casscfISCsearchTSgeo631gdmcqdpt.F16.002
-rw-r--r-- 1 g4rosendo g4      260472 Aug  4 10:41 /scratch/916890.1.iqtc06.q/singletminimum_casscfISCsearchTSgeo631gdmcqdpt.F16.003
-rw-r--r-- 1 g4rosendo g4    36508824 Aug  4 13:49 /scratch/916890.1.iqtc06.q/singletminimum_casscfISCsearchTSgeo631gdmcqdpt.F50
-rw-r--r-- 1 g4rosendo g4   203676368 Aug  4 10:44 /scratch/916890.1.iqtc06.q/singletminimum_casscfISCsearchTSgeo631gdmcqdpt.F51
-rw-r--r-- 1 g4rosendo g4   203906776 Aug  4 10:44 /scratch/916890.1.iqtc06.q/singletminimum_casscfISCsearchTSgeo631gdmcqdpt.F51.001
-rw-r--r-- 1 g4rosendo g4   203690720 Aug  4 10:44 /scratch/916890.1.iqtc06.q/singletminimum_casscfISCsearchTSgeo631gdmcqdpt.F51.002
-rw-r--r-- 1 g4rosendo g4   203283208 Aug  4 10:44 /scratch/916890.1.iqtc06.q/singletminimum_casscfISCsearchTSgeo631gdmcqdpt.F51.003
-rw-r--r-- 1 g4rosendo g4   430504384 Aug  4 10:44 /scratch/916890.1.iqtc06.q/singletminimum_casscfISCsearchTSgeo631gdmcqdpt.F52
-rw-r--r-- 1 g4rosendo g4   430504384 Aug  4 10:44 /scratch/916890.1.iqtc06.q/singletminimum_casscfISCsearchTSgeo631gdmcqdpt.F52.001
-rw-r--r-- 1 g4rosendo g4   430504384 Aug  4 10:44 /scratch/916890.1.iqtc06.q/singletminimum_casscfISCsearchTSgeo631gdmcqdpt.F52.002
-rw-r--r-- 1 g4rosendo g4   430504384 Aug  4 10:44 /scratch/916890.1.iqtc06.q/singletminimum_casscfISCsearchTSgeo631gdmcqdpt.F52.003
-rw-r--r-- 1 g4rosendo g4   430504384 Aug  4 10:54 /scratch/916890.1.iqtc06.q/singletminimum_casscfISCsearchTSgeo631gdmcqdpt.F53
-rw-r--r-- 1 g4rosendo g4   430504384 Aug  4 10:54 /scratch/916890.1.iqtc06.q/singletminimum_casscfISCsearchTSgeo631gdmcqdpt.F53.001
-rw-r--r-- 1 g4rosendo g4   430504384 Aug  4 10:54 /scratch/916890.1.iqtc06.q/singletminimum_casscfISCsearchTSgeo631gdmcqdpt.F53.002
-rw-r--r-- 1 g4rosendo g4   430504384 Aug  4 10:54 /scratch/916890.1.iqtc06.q/singletminimum_casscfISCsearchTSgeo631gdmcqdpt.F53.003
-rw-r--r-- 1 g4rosendo g4   430504384 Aug  4 10:54 /scratch/916890.1.iqtc06.q/singletminimum_casscfISCsearchTSgeo631gdmcqdpt.F54
-rw-r--r-- 1 g4rosendo g4   430504384 Aug  4 10:54 /scratch/916890.1.iqtc06.q/singletminimum_casscfISCsearchTSgeo631gdmcqdpt.F54.001
-rw-r--r-- 1 g4rosendo g4   430504384 Aug  4 10:54 /scratch/916890.1.iqtc06.q/singletminimum_casscfISCsearchTSgeo631gdmcqdpt.F54.002
-rw-r--r-- 1 g4rosendo g4   430504384 Aug  4 10:54 /scratch/916890.1.iqtc06.q/singletminimum_casscfISCsearchTSgeo631gdmcqdpt.F54.003
-rw-r--r-- 1 g4rosendo g4  1165490448 Aug  4 10:44 /scratch/916890.1.iqtc06.q/singletminimum_casscfISCsearchTSgeo631gdmcqdpt.F55
-rw-r--r-- 1 g4rosendo g4  1163221632 Aug  4 10:44 /scratch/916890.1.iqtc06.q/singletminimum_casscfISCsearchTSgeo631gdmcqdpt.F55.001
-rw-r--r-- 1 g4rosendo g4  1164462088 Aug  4 10:44 /scratch/916890.1.iqtc06.q/singletminimum_casscfISCsearchTSgeo631gdmcqdpt.F55.002
-rw-r--r-- 1 g4rosendo g4  1166181888 Aug  4 10:44 /scratch/916890.1.iqtc06.q/singletminimum_casscfISCsearchTSgeo631gdmcqdpt.F55.003
-rw-r--r-- 1 g4rosendo g4           0 Aug  4 10:44 /scratch/916890.1.iqtc06.q/singletminimum_casscfISCsearchTSgeo631gdmcqdpt.F56
-rw-r--r-- 1 g4rosendo g4           0 Aug  4 10:44 /scratch/916890.1.iqtc06.q/singletminimum_casscfISCsearchTSgeo631gdmcqdpt.F56.001
-rw-r--r-- 1 g4rosendo g4           0 Aug  4 10:44 /scratch/916890.1.iqtc06.q/singletminimum_casscfISCsearchTSgeo631gdmcqdpt.F56.002
-rw-r--r-- 1 g4rosendo g4           0 Aug  4 10:44 /scratch/916890.1.iqtc06.q/singletminimum_casscfISCsearchTSgeo631gdmcqdpt.F56.003
-rw-r--r-- 1 g4rosendo g4    16202360 Aug  4 10:51 /scratch/916890.1.iqtc06.q/singletminimum_casscfISCsearchTSgeo631gdmcqdpt.F57
-rw-r--r-- 1 g4rosendo g4    16199512 Aug  4 10:51 /scratch/916890.1.iqtc06.q/singletminimum_casscfISCsearchTSgeo631gdmcqdpt.F57.001
-rw-r--r-- 1 g4rosendo g4    16210392 Aug  4 10:51 /scratch/916890.1.iqtc06.q/singletminimum_casscfISCsearchTSgeo631gdmcqdpt.F57.002
-rw-r--r-- 1 g4rosendo g4    16198216 Aug  4 10:51 /scratch/916890.1.iqtc06.q/singletminimum_casscfISCsearchTSgeo631gdmcqdpt.F57.003
-rw-r--r-- 1 g4rosendo g4    87715152 Aug  4 10:51 /scratch/916890.1.iqtc06.q/singletminimum_casscfISCsearchTSgeo631gdmcqdpt.F58
-rw-r--r-- 1 g4rosendo g4    87715832 Aug  4 10:51 /scratch/916890.1.iqtc06.q/singletminimum_casscfISCsearchTSgeo631gdmcqdpt.F58.001
-rw-r--r-- 1 g4rosendo g4    87713816 Aug  4 10:51 /scratch/916890.1.iqtc06.q/singletminimum_casscfISCsearchTSgeo631gdmcqdpt.F58.002
-rw-r--r-- 1 g4rosendo g4    87689992 Aug  4 10:51 /scratch/916890.1.iqtc06.q/singletminimum_casscfISCsearchTSgeo631gdmcqdpt.F58.003
-rw-r--r-- 1 g4rosendo g4   480046600 Aug  4 10:51 /scratch/916890.1.iqtc06.q/singletminimum_casscfISCsearchTSgeo631gdmcqdpt.F59
-rw-r--r-- 1 g4rosendo g4   480046152 Aug  4 10:51 /scratch/916890.1.iqtc06.q/singletminimum_casscfISCsearchTSgeo631gdmcqdpt.F59.001
-rw-r--r-- 1 g4rosendo g4   480046080 Aug  4 10:51 /scratch/916890.1.iqtc06.q/singletminimum_casscfISCsearchTSgeo631gdmcqdpt.F59.002
-rw-r--r-- 1 g4rosendo g4   479905368 Aug  4 10:51 /scratch/916890.1.iqtc06.q/singletminimum_casscfISCsearchTSgeo631gdmcqdpt.F59.003
-rw-r--r-- 1 g4rosendo g4   111445200 Aug  4 10:54 /scratch/916890.1.iqtc06.q/singletminimum_casscfISCsearchTSgeo631gdmcqdpt.F60
-rw-r--r-- 1 g4rosendo g4   111445200 Aug  4 10:54 /scratch/916890.1.iqtc06.q/singletminimum_casscfISCsearchTSgeo631gdmcqdpt.F60.001
-rw-r--r-- 1 g4rosendo g4   111445200 Aug  4 10:54 /scratch/916890.1.iqtc06.q/singletminimum_casscfISCsearchTSgeo631gdmcqdpt.F60.002
-rw-r--r-- 1 g4rosendo g4   111445200 Aug  4 10:54 /scratch/916890.1.iqtc06.q/singletminimum_casscfISCsearchTSgeo631gdmcqdpt.F60.003
-rw-r--r-- 1 g4rosendo g4   261088400 Aug  4 11:27 /scratch/916890.1.iqtc06.q/singletminimum_casscfISCsearchTSgeo631gdmcqdpt.F61
-rw-r--r-- 1 g4rosendo g4   261088400 Aug  4 11:30 /scratch/916890.1.iqtc06.q/singletminimum_casscfISCsearchTSgeo631gdmcqdpt.F61.001
-rw-r--r-- 1 g4rosendo g4   261088400 Aug  4 11:30 /scratch/916890.1.iqtc06.q/singletminimum_casscfISCsearchTSgeo631gdmcqdpt.F61.002
-rw-r--r-- 1 g4rosendo g4   261088400 Aug  4 11:14 /scratch/916890.1.iqtc06.q/singletminimum_casscfISCsearchTSgeo631gdmcqdpt.F61.003
-rw-r--r-- 1 g4rosendo g4 12987339520 Aug  4 12:10 /scratch/916890.1.iqtc06.q/singletminimum_casscfISCsearchTSgeo631gdmcqdpt.F62
-rw-r--r-- 1 g4rosendo g4 12987339520 Aug  4 12:10 /scratch/916890.1.iqtc06.q/singletminimum_casscfISCsearchTSgeo631gdmcqdpt.F62.001
-rw-r--r-- 1 g4rosendo g4 12987339520 Aug  4 12:12 /scratch/916890.1.iqtc06.q/singletminimum_casscfISCsearchTSgeo631gdmcqdpt.F62.002
-rw-r--r-- 1 g4rosendo g4 12987339520 Aug  4 12:08 /scratch/916890.1.iqtc06.q/singletminimum_casscfISCsearchTSgeo631gdmcqdpt.F62.003
-rw-r--r-- 1 g4rosendo g4     1203092 Aug  4 10:48 /scratch/916890.1.iqtc06.q/singletminimum_casscfISCsearchTSgeo631gdmcqdpt.F63
-rw-r--r-- 1 g4rosendo g4          44 Aug  4 10:48 /scratch/916890.1.iqtc06.q/singletminimum_casscfISCsearchTSgeo631gdmcqdpt.F63.001
-rw-r--r-- 1 g4rosendo g4          44 Aug  4 10:48 /scratch/916890.1.iqtc06.q/singletminimum_casscfISCsearchTSgeo631gdmcqdpt.F63.002
-rw-r--r-- 1 g4rosendo g4          44 Aug  4 10:48 /scratch/916890.1.iqtc06.q/singletminimum_casscfISCsearchTSgeo631gdmcqdpt.F63.003
-rw-r--r-- 1 g4rosendo g4     5913892 Aug  4 10:44 /scratch/916890.1.iqtc06.q/singletminimum_casscfISCsearchTSgeo631gdmcqdpt.F64
-rw-r--r-- 1 g4rosendo g4     5913892 Aug  4 10:44 /scratch/916890.1.iqtc06.q/singletminimum_casscfISCsearchTSgeo631gdmcqdpt.F64.001
-rw-r--r-- 1 g4rosendo g4     5913892 Aug  4 10:44 /scratch/916890.1.iqtc06.q/singletminimum_casscfISCsearchTSgeo631gdmcqdpt.F64.002
-rw-r--r-- 1 g4rosendo g4     5913892 Aug  4 10:44 /scratch/916890.1.iqtc06.q/singletminimum_casscfISCsearchTSgeo631gdmcqdpt.F64.003
-rw-r--r-- 1 g4rosendo g4     1532277 Aug  4 10:43 /scratch/916890.1.iqtc06.q/singletminimum_casscfISCsearchTSgeo631gdmcqdpt.dat
-rw-r--r-- 1 g4rosendo g4           0 Aug  4 00:50 /scratch/916890.1.iqtc06.q/singletminimum_casscfISCsearchTSgeo631gdmcqdpt.nodes.mpd
Thu Aug  4 13:50:10 CEST 2016
368014.971u 3567.410s 12:59:24.88 794.5%	0+0k 156592+944226616io 447pf+0w
