----- GAMESS execution script 'rungms' -----
This job is running on host g4noden2
under operating system Linux at mar sep 13 13:59:17 CEST 2016
Available scratch disk space (Kbyte units) at beginning of the job is
Filesystem           1K-blocks      Used Available Use% Mounted on
/dev/mapper/vgsys-scratch
                     941038652  50795808 890242844   6% /scratch
GAMESS temporary binary files will be written to /scratch/g4rosendo
GAMESS supplementary output files will be written to /scratch/g4rosendo
Copying input file exam39.inp to your run's scratch directory...
MPI kickoff will run GAMESS on 2 cores in 2 nodes.
The binary to be executed is /aplic/gamess/gamess-2013r1_intel11.1_mkl11.1_ompi-1.4.2/gamess.00.x
MPI will run 2 compute processes and 2 data servers,
    placing  of each process type onto each node.
The scratch disk space on each node is /scratch/g4rosendo, with free space
Filesystem           1K-blocks      Used Available Use% Mounted on
/dev/mapper/vgsys-scratch
                     941038652  50795840 890242812   6% /scratch
          ******************************************************
          *         GAMESS VERSION =  1 MAY 2013 (R1)          *
          *             FROM IOWA STATE UNIVERSITY             *
          * M.W.SCHMIDT, K.K.BALDRIDGE, J.A.BOATZ, S.T.ELBERT, *
          *   M.S.GORDON, J.H.JENSEN, S.KOSEKI, N.MATSUNAGA,   *
          *          K.A.NGUYEN, S.J.SU, T.L.WINDUS,           *
          *       TOGETHER WITH M.DUPUIS, J.A.MONTGOMERY       *
          *         J.COMPUT.CHEM.  14, 1347-1363(1993)        *
          **************** 64 BIT INTEL VERSION ****************

  SINCE 1993, STUDENTS AND POSTDOCS WORKING AT IOWA STATE UNIVERSITY
  AND ALSO IN THEIR VARIOUS JOBS AFTER LEAVING ISU HAVE MADE IMPORTANT
  CONTRIBUTIONS TO THE CODE:
     IVANA ADAMOVIC, CHRISTINE AIKENS, YURI ALEXEEV, POOJA ARORA,
     ANDREY ASADCHEV, ROB BELL, PRADIPTA BANDYOPADHYAY, JONATHAN BENTZ,
     BRETT BODE, GALINA CHABAN, WEI CHEN, CHEOL HO CHOI, PAUL DAY,
     ALBERT DEFUSCO, TIM DUDLEY, DMITRI FEDOROV, GRAHAM FLETCHER,
     MARK FREITAG, KURT GLAESEMANN, DAN KEMP, GRANT MERRILL,
     NORIYUKI MINEZAWA, JONATHAN MULLIN, TAKESHI NAGATA,
     SEAN NEDD, HEATHER NETZLOFF, BOSILJKA NJEGIC, RYAN OLSON, MIKE PAK,
     JIM SHOEMAKER, LYUDMILA SLIPCHENKO, SAROM SOK, JIE SONG,
     TETSUYA TAKETSUGU, SIMON WEBB, SOOHAENG YOO, FEDERICO ZAHARIEV

  ADDITIONAL CODE HAS BEEN PROVIDED BY COLLABORATORS IN OTHER GROUPS:
     IOWA STATE UNIVERSITY:
          JOE IVANIC, LAIMUTIS BYTAUTAS, KLAUS RUEDENBERG
     UNIVERSITY OF TOKYO: KIMIHIKO HIRAO, TAKAHITO NAKAJIMA,
          TAKAO TSUNEDA, MUNEAKI KAMIYA, SUSUMU YANAGISAWA,
          KIYOSHI YAGI, MAHITO CHIBA, SEIKEN TOKURA, NAOAKI KAWAKAMI
     UNIVERSITY OF AARHUS: FRANK JENSEN
     UNIVERSITY OF IOWA: VISVALDAS KAIRYS, HUI LI
     NATIONAL INST. OF STANDARDS AND TECHNOLOGY: WALT STEVENS, DAVID GARMER
     UNIVERSITY OF PISA: BENEDETTA MENNUCCI, JACOPO TOMASI
     UNIVERSITY OF MEMPHIS: HENRY KURTZ, PRAKASHAN KORAMBATH
     UNIVERSITY OF ALBERTA: TOBY ZENG, MARIUSZ KLOBUKOWSKI
     UNIVERSITY OF NEW ENGLAND: MARK SPACKMAN
     MIE UNIVERSITY: HIROAKI UMEDA
     MICHIGAN STATE UNIVERSITY:
          KAROL KOWALSKI, MARTA WLOCH, JEFFREY GOUR, JESSE LUTZ,
          WEI LI, PIOTR PIECUCH
     UNIVERSITY OF SILESIA: MONIKA MUSIAL, STANISLAW KUCHARSKI
     FACULTES UNIVERSITAIRES NOTRE-DAME DE LA PAIX:
          OLIVIER QUINET, BENOIT CHAMPAGNE
     UNIVERSITY OF CALIFORNIA - SANTA BARBARA: BERNARD KIRTMAN
     INSTITUTE FOR MOLECULAR SCIENCE:
          KAZUYA ISHIMURA, MICHIO KATOUDA, AND SHIGERU NAGASE
     UNIVERSITY OF NOTRE DAME: DAN CHIPMAN
     KYUSHU UNIVERSITY:
          HARUYUKI NAKANO,
          FENG LONG GU, JACEK KORCHOWIEC, MARCIN MAKOWSKI, AND YURIKO AOKI,
          HIROTOSHI MORI AND EISAKU MIYOSHI
     PENNSYLVANIA STATE UNIVERSITY:
          TZVETELIN IORDANOV, CHET SWALINA, JONATHAN SKONE,
          SHARON HAMMES-SCHIFFER
     WASEDA UNIVERSITY:
          MASATO KOBAYASHI, TOMOKO AKAMA, TSUGUKI TOUMA,
          TAKESHI YOSHIKAWA, YASUHIRO IKABATA, HIROMI NAKAI
     NANJING UNIVERSITY: SHUHUA LI
     UNIVERSITY OF NEBRASKA:
          PEIFENG SU, DEJUN SI, NANDUN THELLAMUREGE, YALI WANG, HUI LI
     UNIVERSITY OF ZURICH:
          ROBERTO PEVERATI, KIM BALDRIDGE
     N. COPERNICUS UNIVERSITY AND JACKSON STATE UNIVERSITY:
          MARIA BARYSZ

 EXECUTION OF GAMESS BEGUN Tue Sep 13 13:59:18 2016

            ECHO OF THE FIRST FEW INPUT CARDS -
 INPUT CARD>!  EXAM 39.                                                                     
 INPUT CARD>!  The non-resonant Raman and hyper-Raman spectra of CH4                        
 INPUT CARD>!                                                                               
 INPUT CARD>!  This run generates results similar to four published papers,                 
 INPUT CARD>!  although the basis set in this test is much smaller.  This                   
 INPUT CARD>!  run (3-21G) can be run in a few seconds, making it suitable                  
 INPUT CARD>!  for a GAMESS test input, but not for publishable results.                    
 INPUT CARD>!                                                                               
 INPUT CARD>!  The basis set for polarizabilities should be large, and have                 
 INPUT CARD>!  appreciable diffuse character.  Good choices are the Sadlej                  
 INPUT CARD>!  basis set named POL, or augmented-cc-pVDZ (GBASIS=ACCD).                     
 INPUT CARD>!  The 3-21G run takes 10 seconds on a certain computer, short                  
 INPUT CARD>!  enough to be a test case, whereas ACCD takes 1217 seconds.                   
 INPUT CARD>!                                                                               
 INPUT CARD>!  dAlpha/dx and dBeta/dX are computed by iterative and non-                    
 INPUT CARD>!  iterative means, to be sure that they get the same results.                  
 INPUT CARD>!                                                                               
 INPUT CARD>!  The log file contains the following things, in this order.                   
 INPUT CARD>!  Search on the phrase "procedure to xcompute", with no x, for                 
 INPUT CARD>!      Iterative procedure to xcompute      Alpha(-0.04; 0.04)                  
 INPUT CARD>!      Iterative procedure to xcompute   dAlphadX(-0.04; 0.04)                  
 INPUT CARD>!  Non-Iterative procedure to xcompute   dAlphadX(-0.04; 0.04)                  
 INPUT CARD>!  Non-Iterative procedure to xcompute         Mu                               
 INPUT CARD>!      Iterative procedure to xcompute       Beta(-0.08; 0.04, 0.04)            
 INPUT CARD>!      Iterative procedure to xcompute    dBetadX(-0.08; 0.04, 0.04)            
 INPUT CARD>!      Iterative procedure to xcompute      Alpha( 0.08;-0.08)                  
 INPUT CARD>!      Iterative procedure to xcompute       Beta( 0.04;-0.08, 0.04)            
 INPUT CARD>!  Non-Iterative procedure to xcompute    dBetadX(-0.08; 0.04, 0.04)            
 INPUT CARD>!      Iterative procedure to xcompute       Beta( 0.00;-0.04, 0.04)            
 INPUT CARD>!  Non-Iterative procedure to xcompute d2AlphadX2(-0.04; 0.04)                  
 INPUT CARD>!      Iterative procedure to xcompute      Gamma( 0.00;-0.08, 0.04,0.04)       
 INPUT CARD>!      Iterative procedure to xcompute   dAlphadX( 0.08;-0.08)                  
 INPUT CARD>!  Non-Iterative procedure to xcompute  d2BetadX2(-0.08; 0.04, 0.04)            
 INPUT CARD>!                                                                               
 INPUT CARD>!  ==================================================================           
 INPUT CARD>!  A. Table 3 in paper number 1,                                                
 INPUT CARD>!     O.Quinet, B.Champagne  JCP  115,2481(2002)                                
 INPUT CARD>!  can be compared to the results from this run, of:                            
 INPUT CARD>!                                                                               
 INPUT CARD>!      Alpha tensor [in au]( -0.040000;  0.040000)                              
 INPUT CARD>!                   x                y                z                         
 INPUT CARD>!        x.        11.502812        -0.000000         0.000000                  
 INPUT CARD>!        y.        -0.000000        11.502812        -0.000000                  
 INPUT CARD>!        z.         0.000000        -0.000000        11.502811                  
 INPUT CARD>!                                                                               
 INPUT CARD>!      Mean       :       11.502812                                             
 INPUT CARD>!      Anisotropy :        0.000000                                             
 INPUT CARD>!                                                                               
 INPUT CARD>!  as well as                                                                   
 INPUT CARD>!                                                                               
    1000000 WORDS OF MEMORY AVAILABLE

     BASIS OPTIONS
     -------------
     GBASIS=N21          IGAUSS=       3      POLAR=NONE    
     NDFUNC=       0     NFFUNC=       0     DIFFSP=       F
     NPFUNC=       0      DIFFS=       F     BASNAM=        


     RUN TITLE
     ---------
 methane RHF                                                                     

 THE POINT GROUP OF THE MOLECULE IS TD      
 THE ORDER OF THE PRINCIPAL AXIS IS     0

 ATOM      ATOMIC                      COORDINATES (BOHR)
           CHARGE         X                   Y                   Z
 C           6.0     0.0000000000        0.0000000000        0.0000000000
 H           1.0     1.1814940595       -1.1814940595       -1.1814940595
 H           1.0    -1.1814940595        1.1814940595       -1.1814940595
 H           1.0    -1.1814940595       -1.1814940595        1.1814940595
 H           1.0     1.1814940595        1.1814940595        1.1814940595

          INTERNUCLEAR DISTANCES (ANGS.)
          ------------------------------

                1 C          2 H          3 H          4 H          5 H     

   1 C       0.0000000    1.0829124 *  1.0829124 *  1.0829124 *  1.0829124 *
   2 H       1.0829124 *  0.0000000    1.7683886 *  1.7683886 *  1.7683886 *
   3 H       1.0829124 *  1.7683886 *  0.0000000    1.7683886 *  1.7683886 *
   4 H       1.0829124 *  1.7683886 *  1.7683886 *  0.0000000    1.7683886 *
   5 H       1.0829124 *  1.7683886 *  1.7683886 *  1.7683886 *  0.0000000  

  * ... LESS THAN  3.000


     ATOMIC BASIS SET
     ----------------
 THE CONTRACTED PRIMITIVE FUNCTIONS HAVE BEEN UNNORMALIZED
 THE CONTRACTED BASIS FUNCTIONS ARE NOW NORMALIZED TO UNITY

  SHELL TYPE  PRIMITIVE        EXPONENT          CONTRACTION COEFFICIENT(S)

 C         

      1   S       1           172.2560000    0.061766907377
      1   S       2            25.9109000    0.358794042852
      1   S       3             5.5333500    0.700713083689

      2   L       4             3.6649800   -0.395895162119    0.236459946619
      2   L       5             0.7705450    1.215834355681    0.860618805716

      3   L       6             0.1958570    1.000000000000    1.000000000000

 H         

     10   S       7             5.4471780    0.156284978695
     10   S       8             0.8245472    0.904690876670

     11   S       9             0.1831916    1.000000000000

 TOTAL NUMBER OF BASIS SET SHELLS             =   11
 NUMBER OF CARTESIAN GAUSSIAN BASIS FUNCTIONS =   17
 NUMBER OF ELECTRONS                          =   10
 CHARGE OF MOLECULE                           =    0
 SPIN MULTIPLICITY                            =    1
 NUMBER OF OCCUPIED ORBITALS (ALPHA)          =    5
 NUMBER OF OCCUPIED ORBITALS (BETA )          =    5
 TOTAL NUMBER OF ATOMS                        =    5
 THE NUCLEAR REPULSION ENERGY IS       13.5233238590

     $CONTRL OPTIONS
     ---------------
 SCFTYP=RHF          RUNTYP=TDHFX        EXETYP=RUN     
 MPLEVL=       0     CITYP =NONE         CCTYP =NONE         VBTYP =NONE    
 DFTTYP=NONE         TDDFT =NONE    
 MULT  =       1     ICHARG=       0     NZVAR =       0     COORD =UNIQUE  
 PP    =NONE         RELWFN=NONE         LOCAL =NONE         NUMGRD=       F
 ISPHER=       0     NOSYM =       1     MAXIT =      30     UNITS =ANGS    
 PLTORB=       F     MOLPLT=       F     AIMPAC=       F     FRIEND=        
 NPRINT=       7     IREST =       0     GEOM  =INPUT   
 NORMF =       0     NORMP =       0     ITOL  =      20     ICUT  =       9
 INTTYP=BEST         GRDTYP=BEST         QMTTOL= 1.0E-06

     $SYSTEM OPTIONS
     ---------------
  REPLICATED MEMORY=     1000000 WORDS (ON EVERY NODE).
 DISTRIBUTED MEMDDI=           0 MILLION WORDS IN AGGREGATE,
 MEMDDI DISTRIBUTED OVER   1 PROCESSORS IS           0 WORDS/PROCESSOR.
 TOTAL MEMORY REQUESTED ON EACH PROCESSOR=     1000000 WORDS.
 TIMLIM=           3.00 MINUTES, OR       0.0 DAYS.
 PARALL= F  BALTYP=  DLB     KDIAG=    0  COREFL= F
 MXSEQ2=     300 MXSEQ3=     150

          ----------------
          PROPERTIES INPUT
          ----------------

     MOMENTS            FIELD           POTENTIAL          DENSITY
 IEMOM =       1   IEFLD =       0   IEPOT =       0   IEDEN =       0
 WHERE =COMASS     WHERE =NUCLEI     WHERE =NUCLEI     WHERE =NUCLEI  
 OUTPUT=BOTH       OUTPUT=BOTH       OUTPUT=BOTH       OUTPUT=BOTH    
 IEMINT=       0   IEFINT=       0                     IEDINT=       0
                                                       MORB  =       0
          EXTRAPOLATION IN EFFECT
          SOSCF IN EFFECT
 ORBITAL PRINTING OPTION: NPREO=     1    17     2     1

     -------------------------------
     INTEGRAL TRANSFORMATION OPTIONS
     -------------------------------
     NWORD  =            0
     CUTOFF = 1.0E-09     MPTRAN =       0
     DIRTRF =       T     AOINTS =DUP     

          ----------------------
          INTEGRAL INPUT OPTIONS
          ----------------------
 NOPK  =       1 NORDER=       0 SCHWRZ=       T

     ------------------------------------------
     THE POINT GROUP IS C1 , NAXIS= 1, ORDER= 1
     ------------------------------------------

     DIMENSIONS OF THE SYMMETRY SUBSPACES ARE
 A   =   17

 ..... DONE SETTING UP THE RUN .....
 STEP CPU TIME =     0.00 TOTAL CPU TIME =        0.0 (    0.0 MIN)
 TOTAL WALL CLOCK TIME=        0.1 SECONDS, CPU UTILIZATION IS   0.00%

          ********************
          1 ELECTRON INTEGRALS
          ********************
 ...... END OF ONE-ELECTRON INTEGRALS ......
 STEP CPU TIME =     0.00 TOTAL CPU TIME =        0.0 (    0.0 MIN)
 TOTAL WALL CLOCK TIME=        0.1 SECONDS, CPU UTILIZATION IS   0.00%

          -------------
          GUESS OPTIONS
          -------------
          GUESS =HUCKEL            NORB  =       0          NORDER=       0
          MIX   =       F          PRTMO =       F          PUNMO =       F
          TOLZ  = 1.0E-08          TOLE  = 1.0E-05
          SYMDEN=       F          PURIFY=       F

 INITIAL GUESS ORBITALS GENERATED BY HUCKEL   ROUTINE.
 HUCKEL GUESS REQUIRES      5845 WORDS.

 SYMMETRIES FOR INITIAL GUESS ORBITALS FOLLOW.   BOTH SET(S).
     5 ORBITALS ARE OCCUPIED (    1 CORE ORBITALS).
     2=A        3=A        4=A        5=A        6=A        7=A        8=A   
     9=A       10=A       11=A       12=A       13=A       14=A       15=A   
 ...... END OF INITIAL ORBITAL SELECTION ......
 STEP CPU TIME =     0.00 TOTAL CPU TIME =        0.0 (    0.0 MIN)
 TOTAL WALL CLOCK TIME=        0.1 SECONDS, CPU UTILIZATION IS   0.00%

                    ----------------------
                    AO INTEGRAL TECHNOLOGY
                    ----------------------
     S,P,L SHELL ROTATED AXIS INTEGRALS, REPROGRAMMED BY
        KAZUYA ISHIMURA (IMS) AND JOSE SIERRA (SYNSTAR).
     S,P,D,L SHELL ROTATED AXIS INTEGRALS PROGRAMMED BY
        KAZUYA ISHIMURA (INSTITUTE FOR MOLECULAR SCIENCE).
     S,P,D,F,G SHELL TO TOTAL QUARTET ANGULAR MOMENTUM SUM 5,
        ERIC PROGRAM BY GRAHAM FLETCHER (ELORET AND NASA ADVANCED
        SUPERCOMPUTING DIVISION, AMES RESEARCH CENTER).
     S,P,D,F,G,L SHELL GENERAL RYS QUADRATURE PROGRAMMED BY
        MICHEL DUPUIS (PACIFIC NORTHWEST NATIONAL LABORATORY).

          --------------------
          2 ELECTRON INTEGRALS
          --------------------

 DIRECT SCF METHOD SKIPS INTEGRAL STORAGE ON DISK.
 DIRECT TRANSFORMATION SKIPS AO INTEGRAL STORAGE ON DISK.
  ...... END OF TWO-ELECTRON INTEGRALS .....
 STEP CPU TIME =     0.01 TOTAL CPU TIME =        0.0 (    0.0 MIN)
 TOTAL WALL CLOCK TIME=        0.1 SECONDS, CPU UTILIZATION IS  10.00%

          --------------------------
                 RHF SCF CALCULATION
          --------------------------

     NUCLEAR ENERGY =        13.5233238590
     MAXIT =   30     NPUNCH=    2
     EXTRAP=T  DAMP=F  SHIFT=F  RSTRCT=F  DIIS=F  DEM=F  SOSCF=T
     DENSITY MATRIX CONV=  2.00E-06
     SOSCF WILL OPTIMIZE      60 ORBITAL ROTATIONS, SOGTOL=   0.250
     MEMORY REQUIRED FOR RHF ITERS=     46989 WORDS.

 DIRECT SCF CALCULATION, SCHWRZ=T   FDIFF=T,  DIRTHR=  0.00E+00 NITDIR=10
 SCHWARZ INEQUALITY OVERHEAD:       153 INTEGRALS, T=        0.00

                                                                                   NONZERO     BLOCKS
 ITER EX DEM     TOTAL ENERGY        E CHANGE  DENSITY CHANGE     ORB. GRAD      INTEGRALS    SKIPPED
   1  0  0      -39.9090375300   -39.9090375300   0.391633414   0.000000000          10695          0
          ---------------START SECOND ORDER SCF---------------
   2  1  0      -39.9738821375    -0.0648446075   0.078617675   0.026603901          10695          0
   3  2  0      -39.9765371528    -0.0026550153   0.029567181   0.010395786          10695          0
   4  3  0      -39.9768721550    -0.0003350021   0.003809533   0.001630197          10695          0
   5  4  0      -39.9768774593    -0.0000053044   0.000234384   0.000171971          10695          0
   6  5  0      -39.9768775554    -0.0000000961   0.000120161   0.000018108          10695          0
   7  6  0      -39.9768775598    -0.0000000044   0.000012337   0.000007930          10695          0
   8  7  0      -39.9768775599    -0.0000000001   0.000000400   0.000000801          10695          0
   9  8  0      -39.9768775599     0.0000000000   0.000000095   0.000000035          10650         45

          -----------------
          DENSITY CONVERGED
          -----------------
     TIME TO FORM FOCK OPERATORS=       0.0 SECONDS (       0.0 SEC/ITER)
     FOCK TIME ON FIRST ITERATION=       0.0, LAST ITERATION=       0.0
     TIME TO SOLVE SCF EQUATIONS=       0.0 SECONDS (       0.0 SEC/ITER)

 FINAL RHF ENERGY IS      -39.9768775599 AFTER   9 ITERATIONS

          ------------
          EIGENVECTORS
          ------------

                      1          2          3          4          5
                  -11.1445    -0.9459    -0.5448    -0.5448    -0.5448
                     A          A          A          A          A   
    1  C  1  S    0.987093  -0.208906   0.000000   0.000000   0.000000
    2  C  1  S    0.099357   0.202441   0.000000   0.000000   0.000000
    3  C  1  X    0.000000   0.000000   0.041088   0.219478   0.300607
    4  C  1  Y    0.000000   0.000000  -0.089629   0.299368  -0.206323
    5  C  1  Z    0.000000   0.000000   0.361251   0.049312  -0.085381
    6  C  1  S   -0.072302   0.613410   0.000000   0.000000   0.000000
    7  C  1  X    0.000000   0.000000   0.034016   0.181700   0.248864
    8  C  1  Y    0.000000   0.000000  -0.074201   0.247838  -0.170809
    9  C  1  Z    0.000000   0.000000   0.299069   0.040824  -0.070684
   10  H  2  S   -0.000557   0.122966  -0.098028  -0.054940   0.251864
   11  H  2  S    0.014107   0.021810  -0.091754  -0.051423   0.235744
   12  H  3  S   -0.000557   0.122966  -0.209196   0.013002  -0.179252
   13  H  3  S    0.014107   0.021810  -0.195807   0.012170  -0.167780
   14  H  4  S   -0.000557   0.122966   0.174253  -0.199657  -0.076398
   15  H  4  S    0.014107   0.021810   0.163100  -0.186878  -0.071508
   16  H  5  S   -0.000557   0.122966   0.132971   0.241594   0.003786
   17  H  5  S    0.014107   0.021810   0.124461   0.226131   0.003544

                      6          7          8          9         10
                    0.2967     0.3526     0.3526     0.3526     0.9231
                     A          A          A          A          A   
    1  C  1  S   -0.179057   0.000000   0.000000   0.000000   0.000000
    2  C  1  S    0.041703   0.000000   0.000000   0.000000   0.000000
    3  C  1  X    0.000000   0.260618  -0.033686   0.055150  -0.601815
    4  C  1  Y    0.000000   0.037738  -0.106688  -0.243498   0.062889
    5  C  1  Z    0.000000  -0.052461  -0.244092   0.098818   0.441514
    6  C  1  S    2.531467   0.000000   0.000000   0.000000   0.000000
    7  C  1  X    0.000000   1.390395  -0.179713   0.294225   1.007394
    8  C  1  Y    0.000000   0.201330  -0.569180  -1.299063  -0.105271
    9  C  1  Z    0.000000  -0.279878  -1.302229   0.527192  -0.739062
   10  H  2  S    0.005201  -0.049079  -0.056522  -0.035620  -0.556261
   11  H  2  S   -0.955554  -1.073428  -1.236205  -0.779048   0.013150
   12  H  3  S    0.005201   0.030377  -0.030497   0.070848   0.112231
   13  H  3  S   -0.955554   0.664387  -0.667000   1.549538  -0.002653
   14  H  4  S    0.005201   0.062533   0.018488  -0.051187   0.493014
   15  H  4  S   -0.955554   1.367672   0.404349  -1.119528  -0.011655
   16  H  5  S    0.005201  -0.043830   0.068531   0.015959  -0.048984
   17  H  5  S   -0.955554  -0.958630   1.498855   0.349039   0.001158

                     11         12         13         14         15
                    0.9231     0.9231     1.3333     1.3590     1.3590
                     A          A          A          A          A   
    1  C  1  S    0.000000   0.000000   0.129921   0.000000   0.000000
    2  C  1  S    0.000000   0.000000  -0.137913   0.000000   0.000000
    3  C  1  X   -0.292597  -0.336565   0.000000  -0.859928  -0.031002
    4  C  1  Y   -0.615321   0.422487   0.000000   0.003595   0.744328
    5  C  1  Z   -0.311186  -0.518941   0.000000   0.067467  -0.434805
    6  C  1  S    0.000000   0.000000  -0.318439   0.000000   0.000000
    7  C  1  X    0.489787   0.563385   0.000000   0.978285   0.035269
    8  C  1  Y    1.030003  -0.707212   0.000000  -0.004089  -0.846774
    9  C  1  Z    0.520903   0.868669   0.000000  -0.076753   0.494650
   10  H  2  S    0.318761  -0.120740   0.671256   0.582910   0.213209
   11  H  2  S   -0.007535   0.002854  -0.248259  -0.881191  -0.322310
   12  H  3  S   -0.005802   0.642638   0.671256  -0.498425  -0.757688
   13  H  3  S    0.000137  -0.015192  -0.248259   0.753474   1.145404
   14  H  4  S    0.300067  -0.304155   0.671256  -0.578408   0.718866
   15  H  4  S   -0.007093   0.007190  -0.248259   0.874386  -1.086717
   16  H  5  S   -0.613027  -0.217743   0.671256   0.493924  -0.174387
   17  H  5  S    0.014492   0.005147  -0.248259  -0.746670   0.263623

                     16         17
                    1.3590     1.9559
                     A          A   
    1  C  1  S    0.000000  -0.016351
    2  C  1  S    0.000000  -2.003212
    3  C  1  X    0.060030   0.000000
    4  C  1  Y    0.435894   0.000000
    5  C  1  Z    0.741912   0.000000
    6  C  1  S    0.000000   3.925717
    7  C  1  X   -0.068292   0.000000
    8  C  1  Y   -0.495889   0.000000
    9  C  1  Z   -0.844026   0.000000
   10  H  2  S    0.699860  -0.140991
   11  H  2  S   -1.057986  -0.776487
   12  H  3  S    0.229189  -0.140991
   13  H  3  S   -0.346468  -0.776487
   14  H  4  S   -0.154018  -0.140991
   15  H  4  S    0.232830  -0.776487
   16  H  5  S   -0.775032  -0.140991
   17  H  5  S    1.171624  -0.776487
 ...... END OF RHF CALCULATION ......
 STEP CPU TIME =     0.03 TOTAL CPU TIME =        0.0 (    0.0 MIN)
 TOTAL WALL CLOCK TIME=        0.2 SECONDS, CPU UTILIZATION IS  16.00%

     ----------------------------------------------------------------
     PROPERTY VALUES FOR THE RHF   SELF-CONSISTENT FIELD WAVEFUNCTION
     ----------------------------------------------------------------

          -----------------
          ENERGY COMPONENTS
          -----------------

         WAVEFUNCTION NORMALIZATION =       1.0000000000

                ONE ELECTRON ENERGY =     -79.5507088818
                TWO ELECTRON ENERGY =      26.0505074629
           NUCLEAR REPULSION ENERGY =      13.5233238590
                                      ------------------
                       TOTAL ENERGY =     -39.9768775599

 ELECTRON-ELECTRON POTENTIAL ENERGY =      26.0505074629
  NUCLEUS-ELECTRON POTENTIAL ENERGY =    -119.4385489281
   NUCLEUS-NUCLEUS POTENTIAL ENERGY =      13.5233238590
                                      ------------------
             TOTAL POTENTIAL ENERGY =     -79.8647176062
               TOTAL KINETIC ENERGY =      39.8878400463
                 VIRIAL RATIO (V/T) =       2.0022321969

          ---------------------------------------
          MULLIKEN AND LOWDIN POPULATION ANALYSES
          ---------------------------------------

     ATOMIC MULLIKEN POPULATION IN EACH MOLECULAR ORBITAL

                      1          2          3          4          5

                  2.000000   2.000000   2.000000   2.000000   2.000000

    1             1.988736   1.500097   1.101712   1.101712   1.101712
    2             0.002816   0.124976   0.085115   0.026734   0.561867
    3             0.002816   0.124976   0.387621   0.001497   0.284597
    4             0.002816   0.124976   0.268943   0.353077   0.051697
    5             0.002816   0.124976   0.156610   0.516979   0.000127

               ----- POPULATIONS IN EACH AO -----
                             MULLIKEN      LOWDIN
              1  C  1  S      1.98738     1.97689
              2  C  1  S      0.35953     0.41494
              3  C  1  X      0.54609     0.51047
              4  C  1  Y      0.54609     0.51047
              5  C  1  Z      0.54609     0.51047
              6  C  1  S      1.14192     0.59804
              7  C  1  X      0.55562     0.61945
              8  C  1  Y      0.55562     0.61945
              9  C  1  Z      0.55562     0.61945
             10  H  2  S      0.47051     0.46492
             11  H  2  S      0.33100     0.44018
             12  H  3  S      0.47051     0.46492
             13  H  3  S      0.33100     0.44018
             14  H  4  S      0.47051     0.46492
             15  H  4  S      0.33100     0.44018
             16  H  5  S      0.47051     0.46492
             17  H  5  S      0.33100     0.44018

          ----- MULLIKEN ATOMIC OVERLAP POPULATIONS -----
          (OFF-DIAGONAL ELEMENTS NEED TO BE MULTIPLIED BY 2)

             1           2           3           4           5

    1    5.3106506
    2    0.3708295   0.5078430
    3    0.3708295  -0.0257215   0.5078430
    4    0.3708295  -0.0257215  -0.0257215   0.5078430
    5    0.3708295  -0.0257215  -0.0257215  -0.0257215   0.5078430

          TOTAL MULLIKEN AND LOWDIN ATOMIC POPULATIONS
       ATOM         MULL.POP.    CHARGE          LOW.POP.     CHARGE
    1 C             6.793968   -0.793968         6.379616   -0.379616
    2 H             0.801508    0.198492         0.905096    0.094904
    3 H             0.801508    0.198492         0.905096    0.094904
    4 H             0.801508    0.198492         0.905096    0.094904
    5 H             0.801508    0.198492         0.905096    0.094904

          MULLIKEN SPHERICAL HARMONIC POPULATIONS
       ATOM           S       P       D      F      G      H      I    TOTAL
    1 C             3.49    3.31    0.00   0.00   0.00   0.00   0.00    6.79
    2 H             0.80    0.00    0.00   0.00   0.00   0.00   0.00    0.80
    3 H             0.80    0.00    0.00   0.00   0.00   0.00   0.00    0.80
    4 H             0.80    0.00    0.00   0.00   0.00   0.00   0.00    0.80
    5 H             0.80    0.00    0.00   0.00   0.00   0.00   0.00    0.80

          -------------------------------
          BOND ORDER AND VALENCE ANALYSIS     BOND ORDER THRESHOLD=0.050
          -------------------------------

                   BOND                       BOND                       BOND
  ATOM PAIR DIST  ORDER      ATOM PAIR DIST  ORDER      ATOM PAIR DIST  ORDER
    1   2  1.083  0.934        1   3  1.083  0.934        1   4  1.083  0.934
    1   5  1.083  0.934

                       TOTAL       BONDED        FREE
      ATOM            VALENCE     VALENCE     VALENCE
    1 C                 3.735       3.735       0.000
    2 H                 0.920       0.920       0.000
    3 H                 0.920       0.920       0.000
    4 H                 0.920       0.920       0.000
    5 H                 0.920       0.920       0.000

          ---------------------
          ELECTROSTATIC MOMENTS
          ---------------------

 POINT   1           X           Y           Z (BOHR)    CHARGE
                 0.000000    0.000000    0.000000        0.00 (A.U.)
         DX          DY          DZ         /D/  (DEBYE)
     0.000000    0.000000    0.000000    0.000000
 ...... END OF PROPERTY EVALUATION ......
 STEP CPU TIME =     0.00 TOTAL CPU TIME =        0.0 (    0.0 MIN)
 TOTAL WALL CLOCK TIME=        0.3 SECONDS, CPU UTILIZATION IS  13.79%

********************************************************************************
*                                                                              *
*                      eXtended Time Dependent Package by                      *
*                                                                              *
*  B. Champagne, B. Kirtman and O. Quinet                                      *
*                                                                              *
* The used algorithms are given in the following references :                  *
*  dAlpha/dX : O. Quinet and B. Champagne, J. Chem.  Phys. 115, p.6293(2001).  *
*  d2Alpha/dX2 : O. Quinet, B. Champagne, and B. Kirtman,                      *
*                J. Comp. Chem. 22, p.1920(2001).                              *
*  dBeta/dX : O. Quinet and B. Champagne, J. Chem. Phys. 117, p.2481(2002).    *
*  d2Beta/dX2 : O. Quinet, B. Champagne, and B. Kirtman,                       *
*               J. Chem. Phys. 118, p.505(2003).                               *
*                                                                              *
* Add references in your work to these papers.                                 *
*                                                                              *
********************************************************************************

$TDHFX Parameters:begin
$TDHFX : read keyword = [FREQ2                                                                           ]

     ---------------------------------
     HESSIAN MATRIX CONTROL PARAMETERS
     ---------------------------------
     METHOD=ANALYTIC   NVIB  =       2   VIBSIZ= 0.01000
     RDHESS=       F   PURIFY=       F   PRTIFC=       F
     VIBANL=       F   DECOMP=       F   PROJCT=       F
     SCLFAC= 1.00000   PRTSCN=       F   NPRT  =       0
     PULCOR=       F   NPUN  =       0   REDOVB=       T

     ------------------------------
     CPHF RESPONSE SOLUTION OPTIONS
     ------------------------------
     POLAR  =       F     NWORD  =       0
     CPHF   =AO      

     ---------------------------------------------
     1ST AND 2ND INTEGRAL DERIVATIVE CONTRIBUTIONS
     ---------------------------------------------
 TDHFX:svgFDD:begin                   153                   135
 TDHFX:svgFDD:end
 TDHFX:svgSDD:begin                   153                   135
 TDHFX:svgSDD:end
 ...... END OF 1-ELECTRON GRAD+HESS+FOCKDER ......
 STEP CPU TIME =     0.01 TOTAL CPU TIME =        0.1 (    0.0 MIN)
 TOTAL WALL CLOCK TIME=        0.4 SECONDS, CPU UTILIZATION IS  13.16%

     ----------------------------------------------
     TWO ELECTRON INTEGRAL DERIVATIVE CONTRIBUTIONS
     ----------------------------------------------

      11151 WORDS REQUIRED,   1000000 WORDS AVAILABLE
 THE COARSE/FINE SCHWARZ SCREENINGS SKIPPED          0/         0 BLOCKS.
 THE NUMBER OF DERIVATIVE INTEGRAL BLOCKS COMPUTED WAS      2166
 STEP CPU TIME =     0.21 TOTAL CPU TIME =        0.3 (    0.0 MIN)
 TOTAL WALL CLOCK TIME=        0.6 SECONDS, CPU UTILIZATION IS  44.07%
 ...... END OF 2-ELECTRON GRAD+HESS+FOCKDER ......
 STEP CPU TIME =     0.00 TOTAL CPU TIME =        0.3 (    0.0 MIN)
 TOTAL WALL CLOCK TIME=        0.6 SECONDS, CPU UTILIZATION IS  44.07%

     -------------------------------------------
     COUPLED-PERTURBED CLOSED SHELL HARTREE-FOCK
     -------------------------------------------
 THE CPHF HAS      60 INDEPENDENT ORBITAL ROTATIONS.
 SOLVING FOR   15 NUCLEAR RESPONSES AND 0 ELECTRIC FIELD RESPONSES
           -FA- WILL USE      2187 WORDS,
           -TA- WILL USE      5915 WORDS,
          -FCK- WILL USE     81673 WORDS,
 -WXY- AND -YA- WILL USE     54794 WORDS,
               THERE ARE   1000000 WORDS OF REPLICATED MEMORY AVAILABLE.
 module TDHFX
 svgGa1
        TIME FOR -FA-   =        0.000
 module TDHFX
 svgSa
        TIME FOR -TA-   =        0.000
        TIME FOR -FCK-  =        0.000
 PRECONDITIONED CONJUGATE GRADIENT SOLVER     CONV. TOLERANCE=5.00E-05
             MAXIMUM          RESPONSES        NONZERO     BLOCKS
 ITER    RESPONSE ERROR        IMPROVED   AO INTEGRALS    SKIPPED
   1       2.44241E-01            15             10695          0
   2       9.02036E-02            15             10695          0
   3       1.00152E-02            15             10695          0
   4       7.46084E-04            15             10695          0
   5       9.54056E-05            15             10695          0
   6       1.34298E-05            12             10695          0
 THE CPHF HAS CONVERGED AFTER  6 ITERATIONS.
 IT REQUIRED    87 FOCK-LIKE BUILDS TO FIND THE  15 SYMMETRY UNIQUE RESPONSES.
 module TDHFX
 svgGa2:begin                    60                     5                    12
                   153                    17                    17
                    15
 svgGa2:end
        TIME FOR -YA-   =        0.030
 ...... DONE WITH CPHF CONTRIBUTIONS ......
 STEP CPU TIME =     0.03 TOTAL CPU TIME =        0.3 (    0.0 MIN)
 TOTAL WALL CLOCK TIME=        0.7 SECONDS, CPU UTILIZATION IS  42.03%

          ---------------
          ENERGY GRADIENT
          ---------------

 UNITS ARE HARTREE/BOHR    E'X               E'Y               E'Z 
    1 C                0.000000000       0.000000000       0.000000000
    2 H                0.000004559      -0.000004559      -0.000004559
    3 H               -0.000004559       0.000004559      -0.000004559
    4 H               -0.000004559      -0.000004559       0.000004559
    5 H                0.000004559       0.000004559       0.000004559

          -------------------------------
          CARTESIAN FORCE CONSTANT MATRIX
          -------------------------------

                                   1                          2
                               C                          H         
                          X        Y        Z        X        Y        Z
  1   C            X 0.611056 0.000000 0.000000-0.152764 0.094595 0.094595
                   Y 0.000000 0.611056 0.000000 0.094595-0.152764-0.094595
                   Z 0.000000 0.000000 0.611056 0.094595-0.094595-0.152764
  2   H            X-0.152764 0.094595 0.094595 0.163308-0.106752-0.106752
                   Y 0.094595-0.152764-0.094595-0.106752 0.163308 0.106752
                   Z 0.094595-0.094595-0.152764-0.106752 0.106752 0.163308
  3   H            X-0.152764 0.094595-0.094595-0.013325 0.012157-0.014145
                   Y 0.094595-0.152764 0.094595 0.012157-0.013325 0.014145
                   Z-0.094595 0.094595-0.152764 0.014145-0.014145 0.016106
  4   H            X-0.152764-0.094595 0.094595-0.013325-0.014145 0.012157
                   Y-0.094595-0.152764 0.094595 0.014145 0.016106-0.014145
                   Z 0.094595 0.094595-0.152764 0.012157 0.014145-0.013325
  5   H            X-0.152764-0.094595-0.094595 0.016106 0.014145 0.014145
                   Y-0.094595-0.152764-0.094595-0.014145-0.013325-0.012157
                   Z-0.094595-0.094595-0.152764-0.014145-0.012157-0.013325

                                   3                          4
                               H                          H         
                          X        Y        Z        X        Y        Z
  3   H            X 0.163308-0.106752 0.106752 0.016106-0.014145 0.014145
                   Y-0.106752 0.163308-0.106752 0.014145-0.013325 0.012157
                   Z 0.106752-0.106752 0.163308-0.014145 0.012157-0.013325
  4   H            X 0.016106 0.014145-0.014145 0.163308 0.106752-0.106752
                   Y-0.014145-0.013325 0.012157 0.106752 0.163308-0.106752
                   Z 0.014145 0.012157-0.013325-0.106752-0.106752 0.163308
  5   H            X-0.013325-0.014145-0.012157-0.013325-0.012157-0.014145
                   Y 0.014145 0.016106 0.014145-0.012157-0.013325-0.014145
                   Z-0.012157-0.014145-0.013325 0.014145 0.014145 0.016106

                                   5
                               H         
                          X        Y        Z
  5   H            X 0.163308 0.106752 0.106752
                   Y 0.106752 0.163308 0.106752
                   Z 0.106752 0.106752 0.163308

          ------------------------          ----------------
          DIPOLE DERIVATIVE TENSOR          (DEBYE/ANGSTROM)
          ------------------------          ----------------

        ATOM                 MU-X           MU-Y           MU-Z
     C          D/DX    -0.106894755    0.000000000    0.000000000
                D/DY     0.000000000   -0.106894755    0.000000000
                D/DZ     0.000000000    0.000000000   -0.106894755
     H          D/DX     0.026722033    0.390625240    0.390625240
                D/DY     0.390625240    0.026722033   -0.390625240
                D/DZ     0.390625240   -0.390625240    0.026722033
     H          D/DX     0.026722033    0.390625240   -0.390625240
                D/DY     0.390625240    0.026722033    0.390625240
                D/DZ    -0.390625240    0.390625240    0.026722033
     H          D/DX     0.026722033   -0.390625240    0.390625240
                D/DY    -0.390625240    0.026722033    0.390625240
                D/DZ     0.390625240    0.390625240    0.026722033
     H          D/DX     0.026722033   -0.390625240   -0.390625240
                D/DY    -0.390625240    0.026722033   -0.390625240
                D/DZ    -0.390625240   -0.390625240    0.026722033

          --------------------------------------------------------
          NORMAL COORDINATE ANALYSIS IN THE HARMONIC APPROXIMATION
          --------------------------------------------------------

          ATOMIC WEIGHTS (AMU)

    1     C                12.00000
    2     H                 1.00782
    3     H                 1.00782
    4     H                 1.00782
    5     H                 1.00782

 MODES 1 TO 6 ARE TAKEN AS ROTATIONS AND TRANSLATIONS.

 ANALYZING SYMMETRY OF NORMAL MODES...

     FREQUENCIES IN CM**-1, IR INTENSITIES IN DEBYE**2/AMU-ANGSTROM**2,
     REDUCED MASSES IN AMU.

                          1           2           3           4           5
       FREQUENCY:         0.00        0.00        0.00       10.15       10.15  
        SYMMETRY:         A           A           A           A           A   
    REDUCED MASS:      3.20626     3.20626     3.20626     1.00782     1.00782
    IR INTENSITY:      0.00000     0.00000     0.00000     0.00000     0.00000

  1   C            X  0.00175430  0.00028573  0.24974947  0.00000000  0.00000000
                   Y  0.24974922  0.00045613 -0.00175482  0.00000000  0.00000000
                   Z -0.00045812  0.24975522 -0.00028252  0.00000000  0.00000000
  2   H            X  0.00175436  0.00028579  0.24974959  0.24808133 -0.16219647
                   Y  0.24974933  0.00045606 -0.00175476 -0.22170818 -0.00324132
                   Z -0.00045818  0.24975533 -0.00028245  0.46978951 -0.15895515
  3   H            X  0.00175436  0.00028566  0.24974959  0.09602517 -0.42932478
                   Y  0.24974933  0.00045619 -0.00175476 -0.37376434 -0.27036963
                   Z -0.00045806  0.24975533 -0.00028258 -0.46978951  0.15895515
  4   H            X  0.00175424  0.00028579  0.24974959 -0.09602517  0.42932478
                   Y  0.24974933  0.00045619 -0.00175488  0.22170818  0.00324132
                   Z -0.00045806  0.24975533 -0.00028245  0.12568301  0.43256610
  5   H            X  0.00175424  0.00028566  0.24974959 -0.24808133  0.16219647
                   Y  0.24974933  0.00045606 -0.00175488  0.37376434  0.27036963
                   Z -0.00045818  0.24975533 -0.00028258 -0.12568301 -0.43256610

 TRANS. SAYVETZ    X  0.02812371  0.00458057  4.00380920  0.00000000  0.00000000
                   Y  4.00380508  0.00731228 -0.02813205  0.00000000  0.00000000
                   Z -0.00734428  4.00390129 -0.00452909  0.00000000  0.00000000
               TOTAL  4.00391059  4.00391059  4.00391059  0.00000000  0.00000000

   ROT. SAYVETZ    X  0.00000000  0.00000000  0.00000000 -2.83621000 -1.30319722
                   Y  0.00000000  0.00000000  0.00000000 -1.63896447  2.81739028
                   Z  0.00000000  0.00000000  0.00000000  0.72423692  1.27232065
               TOTAL  0.00000000  0.00000000  0.00000000  3.35481904  3.35481904

                          6           7           8           9          10
       FREQUENCY:        10.15     1520.35     1520.35     1520.35     1739.79  
        SYMMETRY:         A           A           A           A           A   
    REDUCED MASS:      1.00782     1.18214     1.18214     1.18214     1.00783
    IR INTENSITY:      0.00000     0.50327     0.50327     0.50327     0.00000

  1   C            X  0.00000000 -0.01362976 -0.00790864  0.11474612  0.00000000
                   Y  0.00000000  0.11488277 -0.00654452  0.01319493  0.00000000
                   Z  0.00000000  0.00558269  0.11536729  0.00861458  0.00000000
  2   H            X  0.40025854 -0.17915303 -0.17494726 -0.38134511  0.06983190
                   Y  0.44597524 -0.30692928  0.24433211 -0.23285765 -0.31203088
                   Z -0.04571670  0.21778440 -0.34092625 -0.21086890  0.38186277
  3   H            X -0.23349162 -0.15878778  0.24590460 -0.34991973 -0.06983190
                   Y -0.18777492 -0.32729453 -0.17651974 -0.26428303  0.31203088
                   Z  0.04571670 -0.25102041 -0.34590249  0.15958278  0.38186277
  4   H            X  0.23349162  0.23993135 -0.19882120 -0.33321093 -0.06983190
                   Y -0.44597524 -0.37701496 -0.20536992  0.15430283 -0.31203088
                   Z -0.21248362 -0.20129998 -0.31705231 -0.25900308 -0.38186277
  5   H            X -0.40025854  0.26029660  0.22203065 -0.30178555  0.06983190
                   Y  0.18777492 -0.35664971  0.21548193  0.18572822  0.31203088
                   Z  0.21248362  0.16806397 -0.36977644  0.20771696 -0.38186277

 TRANS. SAYVETZ    X  0.00000000 -0.00000013 -0.00000007  0.00000107  0.00000000
                   Y  0.00000000  0.00000107 -0.00000006  0.00000012  0.00000000
                   Z  0.00000000  0.00000005  0.00000107  0.00000008  0.00000000
               TOTAL  0.00000000  0.00000108  0.00000108  0.00000108  0.00000000

   ROT. SAYVETZ    X  1.22979700  0.00000000  0.00000000  0.00000000  0.00000000
                   Y -0.79430365  0.00000000  0.00000000  0.00000000  0.00000000
                   Z  3.01852478  0.00000000  0.00000000  0.00000000  0.00000000
               TOTAL  3.35481904  0.00000000  0.00000000  0.00000000  0.00000000

                         11          12          13          14          15
       FREQUENCY:      1739.79     3186.67     3280.02     3280.02     3280.02  
        SYMMETRY:         A           A           A           A           A   
    REDUCED MASS:      1.00783     1.00782     1.09891     1.09891     1.09891
    IR INTENSITY:      0.00000     0.00000     0.71175     0.71175     0.71175

  1   C            X  0.00000000  0.00000000 -0.01421635 -0.00455972 -0.08554234
                   Y  0.00000000  0.00000000 -0.08163973 -0.02554323  0.01492932
                   Z  0.00000000  0.00000000 -0.02594681  0.08286820 -0.00010506
  2   H            X  0.40061968  0.28755228 -0.30679898  0.19959175  0.30273905
                   Y  0.26078604 -0.28755228  0.28108277 -0.20766775 -0.32168307
                   Z  0.13983364 -0.28755228  0.29602403 -0.17858319 -0.32571649
  3   H            X -0.40061968 -0.28755228 -0.13840490 -0.33822073  0.30342089
                   Y -0.26078604  0.28755228  0.11268868  0.33014473 -0.32236491
                   Z  0.13983364 -0.28755228 -0.14155194 -0.31476562  0.32634195
  4   H            X -0.40061968 -0.28755228  0.22304074  0.36536665  0.20584814
                   Y  0.26078604 -0.28755228  0.20495243  0.35973721  0.23280262
                   Z -0.13983364  0.28755228 -0.23381569 -0.34435809 -0.22882557
  5   H            X  0.40061968  0.28755228  0.39143482 -0.17244583  0.20652997
                   Y -0.26078604  0.28755228  0.37334652 -0.17807527  0.23348446
                   Z -0.13983364  0.28755228  0.38828778 -0.14899071  0.22945104

 TRANS. SAYVETZ    X  0.00000000  0.00000000  0.00000001  0.00000000  0.00000008
                   Y  0.00000000  0.00000000  0.00000007  0.00000002 -0.00000001
                   Z  0.00000000  0.00000000  0.00000002 -0.00000007  0.00000000
               TOTAL  0.00000000  0.00000000  0.00000008  0.00000008  0.00000008

   ROT. SAYVETZ    X  0.00000000  0.00000000  0.00000000  0.00000000  0.00000000
                   Y  0.00000000  0.00000000  0.00000000  0.00000000  0.00000000
                   Z  0.00000000  0.00000000  0.00000000  0.00000000  0.00000000
               TOTAL  0.00000000  0.00000000  0.00000000  0.00000000  0.00000000

 REFERENCE ON SAYVETZ CONDITIONS - A. SAYVETZ, J.CHEM.PHYS., 7, 383-389(1939).

 NOTE - THE MODES J,K ARE ORTHONORMALIZED ACCORDING TO
 SUM ON I   M(I) * (X(I,J)*X(I,K) + Y(I,J)*Y(I,K) + Z(I,J)*Z(I,K)) = DELTA(J,K)

  MODE FREQ(CM**-1)  SYMMETRY  RED. MASS  IR INTENS.
     1       0.003    A        3.206258    0.000000
     2       0.003    A        3.206258    0.000000
     3       0.003    A        3.206258    0.000000
     4      10.146    A        1.007825    0.000000
     5      10.146    A        1.007825    0.000000
     6      10.146    A        1.007825    0.000000
     7    1520.345    A        1.182144    0.503266
     8    1520.345    A        1.182144    0.503266
     9    1520.345    A        1.182144    0.503266
    10    1739.787    A        1.007825    0.000000
    11    1739.787    A        1.007825    0.000000
    12    3186.666    A        1.007825    0.000000
    13    3280.017    A        1.098908    0.711747
    14    3280.017    A        1.098908    0.711747
    15    3280.017    A        1.098908    0.711747

     -------------------------------
     THERMOCHEMISTRY AT T=  298.15 K
     -------------------------------

 USING IDEAL GAS, RIGID ROTOR, HARMONIC NORMAL MODE APPROXIMATIONS.
 P=  1.01325E+05 PASCAL.
 ALL FREQUENCIES ARE SCALED BY   1.00000
 THE MOMENTS OF INERTIA ARE (IN AMU*BOHR**2)
     11.25481    11.25481    11.25481
 THE ROTATIONAL SYMMETRY NUMBER IS  1.0
 THE ROTATIONAL CONSTANTS ARE (IN GHZ)
    160.20600   160.20600   160.20600
 THE HARMONIC ZERO POINT ENERGY IS (SCALED BY   1.000)
        0.047995 HARTREE/MOLECULE    10533.663956 CM**-1/MOLECULE 
       30.117287 KCAL/MOL              126.010728 KJ/MOL

               Q               LN Q
 ELEC.     1.00000E+00       0.000000
 TRANS.    2.52294E+06      14.740935
 ROT.      4.27414E+02       6.057753
 VIB.      1.00241E+00       0.002406
 TOT.      1.08094E+09      20.801095

              E         H         G         CV        CP        S
           KJ/MOL    KJ/MOL    KJ/MOL   J/MOL-K   J/MOL-K   J/MOL-K
 ELEC.      0.000     0.000     0.000     0.000     0.000     0.000
 TRANS.     3.718     6.197   -36.542    12.472    20.786   143.348
 ROT.       3.718     3.718   -15.017    12.472    12.472    62.838
 VIB.     126.056   126.056   126.005     1.141     1.141     0.171
 TOTAL    133.493   135.971    74.446    26.085    34.399   206.357
 VIB. THERMAL CORRECTION E(T)-E(0) = H(T)-H(0) =    44.978 J/MOL

              E         H         G         CV        CP        S
         KCAL/MOL  KCAL/MOL  KCAL/MOL CAL/MOL-K CAL/MOL-K CAL/MOL-K
 ELEC.      0.000     0.000     0.000     0.000     0.000     0.000
 TRANS.     0.889     1.481    -8.734     2.981     4.968    34.261
 ROT.       0.889     0.889    -3.589     2.981     2.981    15.019
 VIB.      30.128    30.128    30.116     0.273     0.273     0.041
 TOTAL     31.905    32.498    17.793     6.234     8.222    49.321
 VIB. THERMAL CORRECTION E(T)-E(0) = H(T)-H(0) =    10.750 CAL/MOL
 TDHFX : svgFNM                    15                    15
 ......END OF NORMAL COORDINATE ANALYSIS......
 STEP CPU TIME =     0.00 TOTAL CPU TIME =        0.3 (    0.0 MIN)
 TOTAL WALL CLOCK TIME=        0.7 SECONDS, CPU UTILIZATION IS  39.73%
$TDHFX : read keyword = [DADX                                                                            ]
 TDHFX:MakeHf():begin
 TDHFX:MakeHf():end
 STEP CPU TIME =     0.00 TOTAL CPU TIME =        0.3 (    0.0 MIN)
 TOTAL WALL CLOCK TIME=        0.8 SECONDS, CPU UTILIZATION IS  37.66%
Iterative procedure to compute Alpha(    -0.040000;     0.040000)

  OLIX:TDHFCycleX

    MAXITER= 100
    TOLERANCE= 0.100000E-04
    ACCELERATION METHOD=DIIS    
       3 parameters to solve of size        120
    OMEGA= 0.400000E-01

 ..... INITIATING DIIS PROCEDURE .....
OLIX ITER  1:   3 RESPONSES NOT CONVERGED, MAXIMUM RESPONSE ERROR= 0.253523E+00
OLIX ITER  2:   3 RESPONSES NOT CONVERGED, MAXIMUM RESPONSE ERROR= 0.133148E+00
OLIX ITER  3:   3 RESPONSES NOT CONVERGED, MAXIMUM RESPONSE ERROR= 0.111062E-01
OLIX ITER  4:   3 RESPONSES NOT CONVERGED, MAXIMUM RESPONSE ERROR= 0.157110E-02
OLIX ITER  5:   3 RESPONSES NOT CONVERGED, MAXIMUM RESPONSE ERROR= 0.307999E-03
  Field direction x converged within  0.954536E-05
  Field direction y converged within  0.891835E-05
OLIX ITER  6:   1 RESPONSES NOT CONVERGED, MAXIMUM RESPONSE ERROR= 0.105029E-04
  Field direction z converged within  0.146686E-05
OLIX ITER  7:   0 RESPONSES NOT CONVERGED, MAXIMUM RESPONSE ERROR= 0.146686E-05

  Alpha tensor [in au]( -0.040000;  0.040000)
               x                y                z
    x.        11.502812         0.000000         0.000000
    y.         0.000000        11.502812         0.000000
    z.         0.000000         0.000000        11.502811

  Mean       :       11.502811
  Anisotropy :        0.000000
 STEP CPU TIME =     0.01 TOTAL CPU TIME =        0.3 (    0.0 MIN)
 TOTAL WALL CLOCK TIME=        0.8 SECONDS, CPU UTILIZATION IS  35.71%
 TDHFX:MakeHfa():begin
 TDHFX:MakeHfa():end
 STEP CPU TIME =     0.00 TOTAL CPU TIME =        0.3 (    0.0 MIN)
 TOTAL WALL CLOCK TIME=        0.9 SECONDS, CPU UTILIZATION IS  35.29%
 module TDHFX
 GetDJKa:                     3
 STEP CPU TIME =     0.15 TOTAL CPU TIME =        0.4 (    0.0 MIN)
 TOTAL WALL CLOCK TIME=        1.0 SECONDS, CPU UTILIZATION IS  45.00%
Iterative procedure to compute dAlphadX(    -0.040000;     0.040000)

  OLIX:TDHFCycleX

    MAXITER= 100
    TOLERANCE= 0.100000E-04
    ACCELERATION METHOD=DIIS    
      45 parameters to solve of size        120
    OMEGA= 0.400000E-01

 ..... INITIATING DIIS PROCEDURE .....
OLIX ITER  1:  45 RESPONSES NOT CONVERGED, MAXIMUM RESPONSE ERROR= 0.452077E+00
OLIX ITER  2:  45 RESPONSES NOT CONVERGED, MAXIMUM RESPONSE ERROR= 0.135974E+00
OLIX ITER  3:  45 RESPONSES NOT CONVERGED, MAXIMUM RESPONSE ERROR= 0.691627E-01
OLIX ITER  4:  45 RESPONSES NOT CONVERGED, MAXIMUM RESPONSE ERROR= 0.616549E-02
OLIX ITER  5:  45 RESPONSES NOT CONVERGED, MAXIMUM RESPONSE ERROR= 0.525414E-03
OLIX ITER  6:  45 RESPONSES NOT CONVERGED, MAXIMUM RESPONSE ERROR= 0.881604E-04
  Field direction x coord.   1x converged within  0.877336E-05
  Field direction y coord.   1x converged within  0.985334E-06
  Field direction z coord.   1x converged within  0.847922E-06
  Field direction x coord.   1y converged within  0.985334E-06
  Field direction y coord.   1y converged within  0.788694E-05
  Field direction z coord.   1y converged within  0.819925E-06
  Field direction x coord.   1z converged within  0.869597E-06
  Field direction y coord.   1z converged within  0.819924E-06
  Field direction z coord.   1z converged within  0.978613E-05
  Field direction y coord.   2x converged within  0.825458E-05
  Field direction z coord.   2x converged within  0.879454E-05
  Field direction x coord.   2y converged within  0.776293E-05
  Field direction y coord.   2y converged within  0.962917E-05
  Field direction z coord.   2y converged within  0.872384E-05
  Field direction x coord.   2z converged within  0.767224E-05
  Field direction y coord.   2z converged within  0.809318E-05
  Field direction z coord.   2z converged within  0.829780E-05
  Field direction x coord.   3x converged within  0.854582E-05
  Field direction y coord.   3x converged within  0.706469E-05
  Field direction z coord.   3x converged within  0.697658E-05
  Field direction x coord.   3y converged within  0.731781E-05
  Field direction y coord.   3y converged within  0.750791E-05
  Field direction z coord.   3y converged within  0.690588E-05
  Field direction x coord.   3z converged within  0.752151E-05
  Field direction y coord.   3z converged within  0.730479E-05
  Field direction x coord.   4x converged within  0.824882E-05
  Field direction y coord.   4x converged within  0.592308E-05
  Field direction z coord.   4x converged within  0.747980E-05
  Field direction x coord.   4y converged within  0.644294E-05
  Field direction y coord.   4y converged within  0.912827E-05
  Field direction z coord.   4y converged within  0.753972E-05
  Field direction x coord.   4z converged within  0.664664E-05
  Field direction y coord.   4z converged within  0.606304E-05
  Field direction z coord.   4z converged within  0.906735E-05
  Field direction x coord.   5x converged within  0.947396E-05
  Field direction y coord.   5x converged within  0.741337E-05
  Field direction z coord.   5x converged within  0.852978E-05
  Field direction x coord.   5y converged within  0.782996E-05
  Field direction z coord.   5y converged within  0.858969E-05
  Field direction x coord.   5z converged within  0.764244E-05
  Field direction y coord.   5z converged within  0.728576E-05
  Field direction z coord.   5z converged within  0.786137E-05
OLIX ITER  7:   3 RESPONSES NOT CONVERGED, MAXIMUM RESPONSE ERROR= 0.106671E-04
  Field direction x coord.   2x converged within  0.590746E-06
  Field direction z coord.   3z converged within  0.609127E-06
  Field direction y coord.   5y converged within  0.752673E-06
OLIX ITER  8:   0 RESPONSES NOT CONVERGED, MAXIMUM RESPONSE ERROR= 0.752673E-06

  Alpha derivatives [in au]( -0.040000;  0.040000)
  param.   1:dx(  1)
               x                y                z
    x.         0.000000         0.000000         0.000000
    y.         0.000000         0.000000        -4.341380
    z.         0.000000        -4.341380         0.000000
  param.   2:dy(  1)
               x                y                z
    x.         0.000000         0.000000        -4.341380
    y.         0.000000         0.000000         0.000000
    z.        -4.341380         0.000000         0.000000
  param.   3:dz(  1)
               x                y                z
    x.         0.000000        -4.341380         0.000000
    y.        -4.341380         0.000000         0.000000
    z.         0.000000         0.000000         0.000000
  param.   4:dx(  2)
               x                y                z
    x.         4.014427        -1.994479        -1.994479
    y.        -1.994478         0.551025         1.085350
    z.        -1.994478         1.085350         0.551024
  param.   5:dy(  2)
               x                y                z
    x.        -0.551025         1.994479         1.085350
    y.         1.994479        -4.014427        -1.994479
    z.         1.085350        -1.994479        -0.551024
  param.   6:dz(  2)
               x                y                z
    x.        -0.551025         1.085350         1.994479
    y.         1.085350        -0.551025        -1.994479
    z.         1.994479        -1.994479        -4.014427
  param.   7:dx(  3)
               x                y                z
    x.        -4.014427         1.994479        -1.994479
    y.         1.994479        -0.551025         1.085350
    z.        -1.994479         1.085350        -0.551024
  param.   8:dy(  3)
               x                y                z
    x.         0.551025        -1.994479         1.085350
    y.        -1.994479         4.014427        -1.994479
    z.         1.085350        -1.994479         0.551024
  param.   9:dz(  3)
               x                y                z
    x.        -0.551025         1.085350        -1.994479
    y.         1.085350        -0.551025         1.994479
    z.        -1.994479         1.994479        -4.014426
  param.  10:dx(  4)
               x                y                z
    x.        -4.014427        -1.994479         1.994479
    y.        -1.994479        -0.551025         1.085350
    z.         1.994479         1.085350        -0.551024
  param.  11:dy(  4)
               x                y                z
    x.        -0.551025        -1.994479         1.085350
    y.        -1.994479        -4.014427         1.994479
    z.         1.085350         1.994479        -0.551024
  param.  12:dz(  4)
               x                y                z
    x.         0.551025         1.085350        -1.994479
    y.         1.085350         0.551025        -1.994479
    z.        -1.994479        -1.994479         4.014427
  param.  13:dx(  5)
               x                y                z
    x.         4.014427         1.994479         1.994479
    y.         1.994479         0.551025         1.085350
    z.         1.994479         1.085350         0.551024
  param.  14:dy(  5)
               x                y                z
    x.         0.551025         1.994478         1.085350
    y.         1.994479         4.014427         1.994479
    z.         1.085350         1.994478         0.551024
  param.  15:dz(  5)
               x                y                z
    x.         0.551025         1.085350         1.994479
    y.         1.085350         0.551025         1.994479
    z.         1.994479         1.994479         4.014427

  Alpha derivatives [in au]( -0.040000;  0.040000)

    mode    1(1520.3 cm^-1)( -0.040000;  0.040000)
               x                y                z
    x.         0.000000         0.001548         0.031854
    y.         0.001548         0.000000        -0.003779
    z.         0.031854        -0.003779         0.000000

  Mean       :        0.000000
  Anisotropy :        0.055625

  Raman
   Ak=    0.000000 Gk=    0.665033
   Intensity=    3.0959
   l-depolarization ratio=         0.7500
   n-depolarization ratio=         0.8571

    mode    2(1520.3 cm^-1)( -0.040000;  0.040000)
               x                y                z
    x.         0.000000         0.031989        -0.001815
    y.         0.031989         0.000000        -0.002193
    z.        -0.001815        -0.002193         0.000000

  Mean       :        0.000000
  Anisotropy :        0.055625

  Raman
   Ak=    0.000000 Gk=    0.665033
   Intensity=    3.0959
   l-depolarization ratio=         0.7500
   n-depolarization ratio=         0.8571

    mode    3(1520.3 cm^-1)( -0.040000;  0.040000)
               x                y                z
    x.         0.000000         0.002389         0.003659
    y.         0.002389         0.000000         0.031817
    z.         0.003659         0.031817         0.000000

  Mean       :        0.000000
  Anisotropy :        0.055625

  Raman
   Ak=    0.000000 Gk=    0.665034
   Intensity=    3.0959
   l-depolarization ratio=         0.7500
   n-depolarization ratio=         0.8571

    mode    4(1739.8 cm^-1)( -0.040000;  0.040000)
               x                y                z
    x.         0.022659         0.000000         0.000000
    y.         0.000000         0.101247         0.000000
    z.         0.000000         0.000000        -0.123905

  Mean       :        0.000000
  Anisotropy :        0.197927

  Raman
   Ak=    0.000000 Gk=    2.366352
   Intensity=   39.1973
   l-depolarization ratio=         0.7500
   n-depolarization ratio=         0.8571

    mode    5(1739.8 cm^-1)( -0.040000;  0.040000)
               x                y                z
    x.         0.129992         0.000000         0.000000
    y.         0.000000        -0.084619         0.000000
    z.         0.000000         0.000000        -0.045373

  Mean       :        0.000000
  Anisotropy :        0.197927

  Raman
   Ak=    0.000000 Gk=    2.366351
   Intensity=   39.1973
   l-depolarization ratio=         0.7500
   n-depolarization ratio=         0.8571

    mode    6(3186.7 cm^-1)( -0.040000;  0.040000)
               x                y                z
    x.         0.137838         0.000000         0.000000
    y.         0.000000         0.137838         0.000000
    z.         0.000000         0.000000         0.137838

  Mean       :        0.137838
  Anisotropy :        0.000000

  Raman
   Ak=    1.647939 Gk=    0.000000
   Intensity=  122.2066
   l-depolarization ratio=         0.0000
   n-depolarization ratio=         0.0000

    mode    7(3280.0 cm^-1)( -0.040000;  0.040000)
               x                y                z
    x.         0.000000         0.041958         0.132016
    y.         0.041958         0.000000         0.022989
    z.         0.132016         0.022989         0.000000

  Mean       :        0.000000
  Anisotropy :        0.243211

  Raman
   Ak=    0.000000 Gk=    2.907751
   Intensity=   59.1851
   l-depolarization ratio=         0.7500
   n-depolarization ratio=         0.8571

    mode    8(3280.0 cm^-1)( -0.040000;  0.040000)
               x                y                z
    x.         0.000000        -0.134003         0.041305
    y.        -0.134003         0.000000         0.007373
    z.         0.041305         0.007373         0.000000

  Mean       :        0.000000
  Anisotropy :        0.243211

  Raman
   Ak=    0.000000 Gk=    2.907751
   Intensity=   59.1851
   l-depolarization ratio=         0.7500
   n-depolarization ratio=         0.8571

    mode    9(3280.0 cm^-1)( -0.040000;  0.040000)
               x                y                z
    x.         0.000000         0.000170        -0.024142
    y.         0.000170         0.000000         0.138327
    z.        -0.024142         0.138327         0.000000

  Mean       :        0.000000
  Anisotropy :        0.243211

  Raman
   Ak=    0.000000 Gk=    2.907751
   Intensity=   59.1851
   l-depolarization ratio=         0.7500
   n-depolarization ratio=         0.8571
 STEP CPU TIME =     0.15 TOTAL CPU TIME =        0.6 (    0.0 MIN)
 TOTAL WALL CLOCK TIME=        1.3 SECONDS, CPU UTILIZATION IS  46.87%
$TDHFX : read keyword = [DADX_NI                                                                         ]
 module TDHFX
 GetDJKa:                     3
 STEP CPU TIME =     0.16 TOTAL CPU TIME =        0.8 (    0.0 MIN)
 TOTAL WALL CLOCK TIME=        1.4 SECONDS, CPU UTILIZATION IS  52.78%
Non-Iterative procedure to compute dAlphadX(    -0.040000;     0.040000)

  Alpha derivatives [in au]( -0.040000;  0.040000)
  param.   1:dx(  1)
               x                y                z
    x.         0.000000         0.000000         0.000000
    y.         0.000000         0.000000        -4.341381
    z.         0.000000        -4.341381         0.000000
  param.   2:dy(  1)
               x                y                z
    x.         0.000000         0.000000        -4.341381
    y.         0.000000         0.000000         0.000000
    z.        -4.341381         0.000000         0.000000
  param.   3:dz(  1)
               x                y                z
    x.         0.000000        -4.341381         0.000000
    y.        -4.341381         0.000000         0.000000
    z.         0.000000         0.000000         0.000000
  param.   4:dx(  2)
               x                y                z
    x.         4.014428        -1.994479        -1.994478
    y.        -1.994479         0.551026         1.085350
    z.        -1.994478         1.085350         0.551024
  param.   5:dy(  2)
               x                y                z
    x.        -0.551026         1.994479         1.085350
    y.         1.994479        -4.014428        -1.994478
    z.         1.085350        -1.994478        -0.551024
  param.   6:dz(  2)
               x                y                z
    x.        -0.551026         1.085350         1.994480
    y.         1.085350        -0.551026        -1.994480
    z.         1.994480        -1.994480        -4.014427
  param.   7:dx(  3)
               x                y                z
    x.        -4.014428         1.994479        -1.994478
    y.         1.994479        -0.551026         1.085350
    z.        -1.994478         1.085350        -0.551024
  param.   8:dy(  3)
               x                y                z
    x.         0.551026        -1.994479         1.085350
    y.        -1.994479         4.014428        -1.994478
    z.         1.085350        -1.994478         0.551024
  param.   9:dz(  3)
               x                y                z
    x.        -0.551026         1.085350        -1.994480
    y.         1.085350        -0.551026         1.994480
    z.        -1.994480         1.994480        -4.014427
  param.  10:dx(  4)
               x                y                z
    x.        -4.014428        -1.994479         1.994478
    y.        -1.994479        -0.551026         1.085350
    z.         1.994478         1.085350        -0.551024
  param.  11:dy(  4)
               x                y                z
    x.        -0.551026        -1.994479         1.085350
    y.        -1.994479        -4.014428         1.994478
    z.         1.085350         1.994478        -0.551024
  param.  12:dz(  4)
               x                y                z
    x.         0.551026         1.085350        -1.994480
    y.         1.085350         0.551026        -1.994480
    z.        -1.994480        -1.994480         4.014427
  param.  13:dx(  5)
               x                y                z
    x.         4.014428         1.994479         1.994478
    y.         1.994479         0.551026         1.085350
    z.         1.994478         1.085350         0.551024
  param.  14:dy(  5)
               x                y                z
    x.         0.551026         1.994479         1.085350
    y.         1.994479         4.014428         1.994478
    z.         1.085350         1.994478         0.551024
  param.  15:dz(  5)
               x                y                z
    x.         0.551026         1.085350         1.994480
    y.         1.085350         0.551026         1.994480
    z.         1.994480         1.994480         4.014427

  Alpha derivatives [in au]( -0.040000;  0.040000)

    mode    1(1520.3 cm^-1)( -0.040000;  0.040000)
               x                y                z
    x.         0.000000         0.001548         0.031854
    y.         0.001548         0.000000        -0.003779
    z.         0.031854        -0.003779         0.000000

  Mean       :        0.000000
  Anisotropy :        0.055625

  Raman
   Ak=    0.000000 Gk=    0.665033
   Intensity=    3.0959
   l-depolarization ratio=         0.7500
   n-depolarization ratio=         0.8571

    mode    2(1520.3 cm^-1)( -0.040000;  0.040000)
               x                y                z
    x.         0.000000         0.031989        -0.001815
    y.         0.031989         0.000000        -0.002193
    z.        -0.001815        -0.002193         0.000000

  Mean       :        0.000000
  Anisotropy :        0.055625

  Raman
   Ak=    0.000000 Gk=    0.665033
   Intensity=    3.0959
   l-depolarization ratio=         0.7500
   n-depolarization ratio=         0.8571

    mode    3(1520.3 cm^-1)( -0.040000;  0.040000)
               x                y                z
    x.         0.000000         0.002389         0.003659
    y.         0.002389         0.000000         0.031817
    z.         0.003659         0.031817         0.000000

  Mean       :        0.000000
  Anisotropy :        0.055625

  Raman
   Ak=    0.000000 Gk=    0.665033
   Intensity=    3.0959
   l-depolarization ratio=         0.7500
   n-depolarization ratio=         0.8571

    mode    4(1739.8 cm^-1)( -0.040000;  0.040000)
               x                y                z
    x.         0.022659         0.000000         0.000000
    y.         0.000000         0.101247         0.000000
    z.         0.000000         0.000000        -0.123905

  Mean       :        0.000000
  Anisotropy :        0.197927

  Raman
   Ak=    0.000000 Gk=    2.366352
   Intensity=   39.1973
   l-depolarization ratio=         0.7500
   n-depolarization ratio=         0.8571

    mode    5(1739.8 cm^-1)( -0.040000;  0.040000)
               x                y                z
    x.         0.129992         0.000000         0.000000
    y.         0.000000        -0.084619         0.000000
    z.         0.000000         0.000000        -0.045373

  Mean       :        0.000000
  Anisotropy :        0.197927

  Raman
   Ak=    0.000000 Gk=    2.366351
   Intensity=   39.1973
   l-depolarization ratio=         0.7500
   n-depolarization ratio=         0.8571

    mode    6(3186.7 cm^-1)( -0.040000;  0.040000)
               x                y                z
    x.         0.137838         0.000000         0.000000
    y.         0.000000         0.137838         0.000000
    z.         0.000000         0.000000         0.137838

  Mean       :        0.137838
  Anisotropy :        0.000000

  Raman
   Ak=    1.647939 Gk=    0.000000
   Intensity=  122.2066
   l-depolarization ratio=         0.0000
   n-depolarization ratio=         0.0000

    mode    7(3280.0 cm^-1)( -0.040000;  0.040000)
               x                y                z
    x.         0.000000         0.041958         0.132016
    y.         0.041958         0.000000         0.022989
    z.         0.132016         0.022989         0.000000

  Mean       :        0.000000
  Anisotropy :        0.243211

  Raman
   Ak=    0.000000 Gk=    2.907751
   Intensity=   59.1851
   l-depolarization ratio=         0.7500
   n-depolarization ratio=         0.8571

    mode    8(3280.0 cm^-1)( -0.040000;  0.040000)
               x                y                z
    x.         0.000000        -0.134003         0.041305
    y.        -0.134003         0.000000         0.007373
    z.         0.041305         0.007373         0.000000

  Mean       :        0.000000
  Anisotropy :        0.243211

  Raman
   Ak=    0.000000 Gk=    2.907751
   Intensity=   59.1851
   l-depolarization ratio=         0.7500
   n-depolarization ratio=         0.8571

    mode    9(3280.0 cm^-1)( -0.040000;  0.040000)
               x                y                z
    x.         0.000000         0.000170        -0.024142
    y.         0.000170         0.000000         0.138327
    z.        -0.024142         0.138327         0.000000

  Mean       :        0.000000
  Anisotropy :        0.243211

  Raman
   Ak=    0.000000 Gk=    2.907751
   Intensity=   59.1851
   l-depolarization ratio=         0.7500
   n-depolarization ratio=         0.8571
 STEP CPU TIME =     0.00 TOTAL CPU TIME =        0.8 (    0.0 MIN)
 TOTAL WALL CLOCK TIME=        1.5 SECONDS, CPU UTILIZATION IS  51.70%
$TDHFX : read keyword = [DBDX                                                                            ]
NonIterative procedure to compute Mu

  Dipole moment [in au]
               x                y                z
               0.000000         0.000000         0.000000

  norm :        0.000000
 STEP CPU TIME =     0.00 TOTAL CPU TIME =        0.8 (    0.0 MIN)
 TOTAL WALL CLOCK TIME=        1.5 SECONDS, CPU UTILIZATION IS  51.70%
Iterative procedure to compute Beta(    -0.080000;     0.040000,     0.040000)

  OLIX:TDHFCycleX

    MAXITER= 100
    TOLERANCE= 0.100000E-04
    ACCELERATION METHOD=DIIS    
       9 parameters to solve of size        120
    OMEGA= 0.800000E-01

 ..... INITIATING DIIS PROCEDURE .....
OLIX ITER  1:   9 RESPONSES NOT CONVERGED, MAXIMUM RESPONSE ERROR= 0.109367E+01
OLIX ITER  2:   9 RESPONSES NOT CONVERGED, MAXIMUM RESPONSE ERROR= 0.385237E+00
OLIX ITER  3:   9 RESPONSES NOT CONVERGED, MAXIMUM RESPONSE ERROR= 0.145658E+00
OLIX ITER  4:   9 RESPONSES NOT CONVERGED, MAXIMUM RESPONSE ERROR= 0.196469E-01
OLIX ITER  5:   9 RESPONSES NOT CONVERGED, MAXIMUM RESPONSE ERROR= 0.152588E-02
OLIX ITER  6:   9 RESPONSES NOT CONVERGED, MAXIMUM RESPONSE ERROR= 0.965230E-04
  Field directions xx converged within  0.729736E-05
  Field directions xz converged within  0.837397E-05
  Field directions yy converged within  0.671728E-05
  Field directions yz converged within  0.840863E-05
  Field directions zx converged within  0.837397E-05
  Field directions zy converged within  0.840863E-05
  Field directions zz converged within  0.819015E-05
OLIX ITER  7:   2 RESPONSES NOT CONVERGED, MAXIMUM RESPONSE ERROR= 0.101050E-04
  Field directions xy converged within  0.841956E-06
  Field directions yx converged within  0.841938E-06
OLIX ITER  8:   0 RESPONSES NOT CONVERGED, MAXIMUM RESPONSE ERROR= 0.841956E-06

  Beta tensor [in au]( -0.080000;  0.040000,  0.040000)
               x                y                z
   xx.         0.000000         0.000000         0.000000
   xy.         0.000000         0.000000       -28.568753
   xz.         0.000000       -28.568753         0.000000
   yx.         0.000000         0.000000       -28.568753
   yy.         0.000000         0.000000         0.000000
   yz.       -28.568753         0.000000         0.000000
   zx.         0.000000       -28.568755         0.000000
   zy.       -28.568755         0.000000         0.000000
   zz.         0.000000         0.000000         0.000000

  x   :        0.000000  B(i)=(B(i,j,j)+B(j,i,j)+B(j,j,i))/5
  y   :        0.000000
  z   :        0.000000
  BAR :        0.000000  BAR=B(i)*MU(i)/|MU|

  x   :        0.000000  B(i)=(B(i,j,j)+B(j,i,j)+B(j,j,i))/3
  y   :        0.000000
  z   :        0.000000
  VEC :        0.000000  norm of Beta VEC
 STEP CPU TIME =     0.04 TOTAL CPU TIME =        0.8 (    0.0 MIN)
 TOTAL WALL CLOCK TIME=        1.6 SECONDS, CPU UTILIZATION IS  50.96%
Iterative procedure to compute dBetadX(    -0.080000;     0.040000,     0.040000)
 module TDHFX
 GetDJKa:                     9
 STEP CPU TIME =     0.17 TOTAL CPU TIME =        1.0 (    0.0 MIN)
 TOTAL WALL CLOCK TIME=        1.7 SECONDS, CPU UTILIZATION IS  55.75%

  OLIX:TDHFCycleX

    MAXITER= 100
    TOLERANCE= 0.100000E-04
    ACCELERATION METHOD=DIIS    
     135 parameters to solve of size        120
    OMEGA= 0.800000E-01

 ..... INITIATING DIIS PROCEDURE .....
OLIX ITER  1: 135 RESPONSES NOT CONVERGED, MAXIMUM RESPONSE ERROR= 0.240556E+01
OLIX ITER  2: 135 RESPONSES NOT CONVERGED, MAXIMUM RESPONSE ERROR= 0.554127E+00
OLIX ITER  3: 135 RESPONSES NOT CONVERGED, MAXIMUM RESPONSE ERROR= 0.290598E+00
OLIX ITER  4: 135 RESPONSES NOT CONVERGED, MAXIMUM RESPONSE ERROR= 0.296306E-01
OLIX ITER  5: 135 RESPONSES NOT CONVERGED, MAXIMUM RESPONSE ERROR= 0.303930E-02
OLIX ITER  6: 135 RESPONSES NOT CONVERGED, MAXIMUM RESPONSE ERROR= 0.308862E-03
  Field directions xx coord.   1x converged within  0.459303E-05
  Field directions xy coord.   1x converged within  0.346508E-05
  Field directions xz coord.   1x converged within  0.418135E-05
  Field directions yx coord.   1x converged within  0.346508E-05
  Field directions yy coord.   1x converged within  0.879725E-05
  Field directions zx coord.   1x converged within  0.418135E-05
  Field directions zz coord.   1x converged within  0.770633E-05
  Field directions xx coord.   1y converged within  0.850434E-05
  Field directions xy coord.   1y converged within  0.347943E-05
  Field directions yx coord.   1y converged within  0.347943E-05
  Field directions yy coord.   1y converged within  0.457409E-05
  Field directions yz coord.   1y converged within  0.418135E-05
  Field directions zy coord.   1y converged within  0.418135E-05
  Field directions zz coord.   1y converged within  0.717628E-05
  Field directions xx coord.   1z converged within  0.783626E-05
  Field directions xz coord.   1z converged within  0.347943E-05
  Field directions yy coord.   1z converged within  0.763445E-05
  Field directions yz coord.   1z converged within  0.384141E-05
  Field directions zx coord.   1z converged within  0.347943E-05
  Field directions zy coord.   1z converged within  0.384141E-05
  Field directions zz coord.   1z converged within  0.551959E-05
OLIX ITER  7: 114 RESPONSES NOT CONVERGED, MAXIMUM RESPONSE ERROR= 0.355977E-04
  Field directions yz coord.   1x converged within  0.200281E-05
  Field directions zy coord.   1x converged within  0.200282E-05
  Field directions xz coord.   1y converged within  0.213334E-05
  Field directions zx coord.   1y converged within  0.213335E-05
  Field directions xy coord.   1z converged within  0.234073E-05
  Field directions yx coord.   1z converged within  0.234073E-05
  Field directions xx coord.   2x converged within  0.284520E-05
  Field directions xy coord.   2x converged within  0.175630E-05
  Field directions xz coord.   2x converged within  0.163116E-05
  Field directions yx coord.   2x converged within  0.175631E-05
  Field directions yy coord.   2x converged within  0.305968E-05
  Field directions yz coord.   2x converged within  0.244347E-05
  Field directions zx coord.   2x converged within  0.163116E-05
  Field directions zy coord.   2x converged within  0.244347E-05
  Field directions zz coord.   2x converged within  0.311329E-05
  Field directions xx coord.   2y converged within  0.282402E-05
  Field directions xy coord.   2y converged within  0.178034E-05
  Field directions xz coord.   2y converged within  0.231942E-05
  Field directions yx coord.   2y converged within  0.178035E-05
  Field directions yy coord.   2y converged within  0.258059E-05
  Field directions yz coord.   2y converged within  0.128576E-05
  Field directions zx coord.   2y converged within  0.231942E-05
  Field directions zy coord.   2y converged within  0.128577E-05
  Field directions zz coord.   2y converged within  0.339433E-05
  Field directions xx coord.   2z converged within  0.295544E-05
  Field directions xy coord.   2z converged within  0.301617E-05
  Field directions xz coord.   2z converged within  0.155616E-05
  Field directions yx coord.   2z converged within  0.301617E-05
  Field directions yy coord.   2z converged within  0.298085E-05
  Field directions yz coord.   2z converged within  0.168029E-05
  Field directions zx coord.   2z converged within  0.155615E-05
  Field directions zy coord.   2z converged within  0.168029E-05
[...]
  y   :       -0.005912
  z   :       -0.001879
  VEC :        0.006289  norm of Beta VEC

    dQ(   7)(w=3280.0 cm^-1)dQ(   7)(w=3280.0 cm^-1)( -0.080000;  0.040000,  0.040000)
               x                y                z
   xx.         0.002791         0.000198         0.000622
   xy.         0.000198         0.001193         0.001848
   xz.         0.000622         0.001848         0.001193
   yx.         0.000208         0.001136         0.001879
   yy.         0.001136         0.000486         0.000622
   yz.         0.001879         0.000622         0.000208
   zx.         0.000654         0.001851         0.001136
   zy.         0.001851         0.000654         0.000198
   zz.         0.001136         0.000198         0.001529

  x   :        0.003060  B(i)=(B(i,j,j)+B(j,i,j)+B(j,j,i))/5
  y   :        0.000533
  z   :        0.001677
  BAR :       -0.003376  BAR=B(i)*MU(i)/|MU|

  x   :        0.005100  B(i)=(B(i,j,j)+B(j,i,j)+B(j,j,i))/3
  y   :        0.000888
  z   :        0.002794
  VEC :        0.005883  norm of Beta VEC

    dQ(   1)(w=1520.3 cm^-1)dQ(   8)(w=3280.0 cm^-1)( -0.080000;  0.040000,  0.040000)
               x                y                z
   xx.        -0.000582         0.000596        -0.000293
   xy.         0.000596        -0.005095        -0.000087
   xz.        -0.000293        -0.000087         0.002058
   yx.         0.000596        -0.005100        -0.000087
   yy.        -0.005100         0.000072         0.000351
   yz.        -0.000087         0.000351        -0.000222
   zx.        -0.000294        -0.000086         0.002039
   zy.        -0.000086         0.000351        -0.000219
   zz.         0.002039        -0.000219         0.000011

  x   :       -0.002181  B(i)=(B(i,j,j)+B(j,i,j)+B(j,j,i))/5
  y   :        0.000269
  z   :        0.000041
  BAR :        0.002104  BAR=B(i)*MU(i)/|MU|

  x   :       -0.003634  B(i)=(B(i,j,j)+B(j,i,j)+B(j,j,i))/3
  y   :        0.000448
  z   :        0.000068
  VEC :        0.003662  norm of Beta VEC

    dQ(   2)(w=1520.3 cm^-1)dQ(   8)(w=3280.0 cm^-1)( -0.080000;  0.040000,  0.040000)
               x                y                z
   xx.         0.000216         0.000241        -0.000101
   xy.         0.000241        -0.000325         0.000351
   xz.        -0.000101         0.000351         0.001455
   yx.         0.000239        -0.000319         0.000351
   yy.        -0.000319         0.000073         0.000026
   yz.         0.000351         0.000026         0.000143
   zx.        -0.000101         0.000352         0.001458
   zy.         0.000352         0.000026         0.000145
   zz.         0.001458         0.000145        -0.000014

  x   :        0.000811  B(i)=(B(i,j,j)+B(j,i,j)+B(j,j,i))/5
  y   :        0.000275
  z   :       -0.000054
  BAR :       -0.000770  BAR=B(i)*MU(i)/|MU|

  x   :        0.001352  B(i)=(B(i,j,j)+B(j,i,j)+B(j,j,i))/3
  y   :        0.000458
  z   :       -0.000090
  VEC :        0.001431  norm of Beta VEC

    dQ(   3)(w=1520.3 cm^-1)dQ(   8)(w=3280.0 cm^-1)( -0.080000;  0.040000,  0.040000)
               x                y                z
   xx.        -0.000054        -0.005072         0.001549
   xy.        -0.005072        -0.000628        -0.000005
   xz.         0.001549        -0.000005         0.000345
   yx.        -0.005067        -0.000628        -0.000005
   yy.        -0.000628        -0.000587        -0.000572
   yz.        -0.000005        -0.000572         0.002000
   zx.         0.001547        -0.000005         0.000343
   zy.        -0.000005        -0.000578         0.001982
   zz.         0.000343         0.001982         0.000186

  x   :       -0.000203  B(i)=(B(i,j,j)+B(j,i,j)+B(j,j,i))/5
  y   :       -0.002202
  z   :        0.000696
  BAR :        0.000002  BAR=B(i)*MU(i)/|MU|

  x   :       -0.000338  B(i)=(B(i,j,j)+B(j,i,j)+B(j,j,i))/3
  y   :       -0.003670
  z   :        0.001159
  VEC :        0.003864  norm of Beta VEC

    dQ(   4)(w=1739.8 cm^-1)dQ(   8)(w=3280.0 cm^-1)( -0.080000;  0.040000,  0.040000)
               x                y                z
   xx.         0.000033        -0.000582        -0.000445
   xy.        -0.000582        -0.000216         0.000000
   xz.        -0.000445         0.000000         0.000237
   yx.        -0.000564        -0.000219         0.000000
   yy.        -0.000219         0.000814         0.002468
   yz.         0.000000         0.002468         0.001089
   zx.        -0.000395         0.000000         0.000240
   zy.         0.000000         0.002480         0.001092
   zz.         0.000240         0.001092         0.003232

  x   :        0.000032  B(i)=(B(i,j,j)+B(j,i,j)+B(j,j,i))/5
  y   :        0.000797
  z   :        0.003166
  BAR :       -0.000812  BAR=B(i)*MU(i)/|MU|

  x   :        0.000053  B(i)=(B(i,j,j)+B(j,i,j)+B(j,j,i))/3
  y   :        0.001329
  z   :        0.005276
  VEC :        0.005441  norm of Beta VEC

    dQ(   5)(w=1739.8 cm^-1)dQ(   8)(w=3280.0 cm^-1)( -0.080000;  0.040000,  0.040000)
               x                y                z
   xx.         0.000187        -0.001215         0.004348
   xy.        -0.001215         0.000100         0.000000
   xz.         0.004348         0.000000         0.000021
   yx.        -0.001208         0.000098         0.000000
   yy.         0.000098        -0.000680        -0.003607
   yz.         0.000000        -0.003607         0.000769
   zx.         0.004306         0.000000         0.000018
   zy.         0.000000        -0.003543         0.000789
   zz.         0.000018         0.000789         0.001184

  x   :        0.000183  B(i)=(B(i,j,j)+B(j,i,j)+B(j,j,i))/5
  y   :       -0.000666
  z   :        0.001159
  BAR :       -0.000472  BAR=B(i)*MU(i)/|MU|

  x   :        0.000305  B(i)=(B(i,j,j)+B(j,i,j)+B(j,j,i))/3
  y   :       -0.001111
  z   :        0.001932
  VEC :        0.002249  norm of Beta VEC

    dQ(   6)(w=3186.7 cm^-1)dQ(   8)(w=3280.0 cm^-1)( -0.080000;  0.040000,  0.040000)
               x                y                z
   xx.         0.000074        -0.001143         0.003708
   xy.        -0.001143        -0.000198         0.000000
   xz.         0.003708         0.000000        -0.000198
   yx.        -0.001110        -0.000204         0.000000
   yy.        -0.000204         0.000414         0.003708
   yz.         0.000000         0.003708        -0.001110
   zx.         0.003602         0.000000        -0.000204
   zy.         0.000000         0.003602        -0.001143
   zz.        -0.000204        -0.001143        -0.001344

  x   :       -0.000198  B(i)=(B(i,j,j)+B(j,i,j)+B(j,j,i))/5
  y   :       -0.001110
  z   :        0.003601
  BAR :       -0.000716  BAR=B(i)*MU(i)/|MU|

  x   :       -0.000330  B(i)=(B(i,j,j)+B(j,i,j)+B(j,j,i))/3
  y   :       -0.001850
  z   :        0.006001
  VEC :        0.006289  norm of Beta VEC

    dQ(   7)(w=3280.0 cm^-1)dQ(   8)(w=3280.0 cm^-1)( -0.080000;  0.040000,  0.040000)
               x                y                z
   xx.        -0.004020        -0.000284         0.000197
   xy.        -0.000284        -0.001718         0.000000
   xz.         0.000197         0.000000        -0.001718
   yx.        -0.000298        -0.001636         0.000010
   yy.        -0.001636        -0.000698         0.000197
   yz.         0.000010         0.000197        -0.000298
   zx.         0.000207        -0.000010        -0.001636
   zy.        -0.000010         0.000207        -0.000284
   zz.        -0.001636        -0.000284         0.000484

  x   :       -0.004408  B(i)=(B(i,j,j)+B(j,i,j)+B(j,j,i))/5
  y   :       -0.000765
  z   :        0.000531
  BAR :        0.004129  BAR=B(i)*MU(i)/|MU|

  x   :       -0.007346  B(i)=(B(i,j,j)+B(j,i,j)+B(j,j,i))/3
  y   :       -0.001276
  z   :        0.000885
  VEC :        0.007509  norm of Beta VEC

    dQ(   8)(w=3280.0 cm^-1)dQ(   8)(w=3280.0 cm^-1)( -0.080000;  0.040000,  0.040000)
               x                y                z
   xx.        -0.002789        -0.000203         0.000062
   xy.        -0.000203        -0.001192         0.001848
   xz.         0.000062         0.001848        -0.001192
   yx.        -0.000213        -0.001135         0.001851
   yy.        -0.001135        -0.000498         0.000062
   yz.         0.001851         0.000062        -0.000213
   zx.         0.000066         0.001880        -0.001135
   zy.         0.001880         0.000066        -0.000203
   zz.        -0.001135        -0.000203         0.000153

  x   :       -0.003058  B(i)=(B(i,j,j)+B(j,i,j)+B(j,j,i))/5
  y   :       -0.000546
  z   :        0.000168
  BAR :        0.002914  BAR=B(i)*MU(i)/|MU|

  x   :       -0.005096  B(i)=(B(i,j,j)+B(j,i,j)+B(j,j,i))/3
  y   :       -0.000910
  z   :        0.000280
  VEC :        0.005185  norm of Beta VEC

    dQ(   1)(w=1520.3 cm^-1)dQ(   9)(w=3280.0 cm^-1)( -0.080000;  0.040000,  0.040000)
               x                y                z
   xx.        -0.000004        -0.000099        -0.001918
   xy.        -0.000099         0.000024         0.000104
   xz.        -0.001918         0.000104        -0.000047
   yx.        -0.000100         0.000024         0.000104
   yy.         0.000024         0.000030         0.005192
   yz.         0.000104         0.005192         0.000254
   zx.        -0.001937         0.000103        -0.000047
   zy.         0.000103         0.005186         0.000255
   zz.        -0.000047         0.000255         0.000622

  x   :       -0.000017  B(i)=(B(i,j,j)+B(j,i,j)+B(j,j,i))/5
  y   :        0.000111
  z   :        0.002333
  BAR :       -0.000564  BAR=B(i)*MU(i)/|MU|

  x   :       -0.000028  B(i)=(B(i,j,j)+B(j,i,j)+B(j,j,i))/3
  y   :        0.000185
  z   :        0.003888
  VEC :        0.003892  norm of Beta VEC

    dQ(   2)(w=1520.3 cm^-1)dQ(   9)(w=3280.0 cm^-1)( -0.080000;  0.040000,  0.040000)
               x                y                z
   xx.        -0.000107        -0.002036         0.000178
   xy.        -0.002036         0.000358         0.000020
   xz.         0.000178         0.000020        -0.000916
   yx.        -0.002055         0.000355         0.000020
   yy.         0.000355         0.000612        -0.000323
   yz.         0.000020        -0.000323         0.005251
   zx.         0.000179         0.000020        -0.000917
   zy.         0.000020        -0.000322         0.005256
   zz.        -0.000917         0.005256        -0.000027

  x   :       -0.000401  B(i)=(B(i,j,j)+B(j,i,j)+B(j,j,i))/5
  y   :        0.002295
  z   :       -0.000103
  BAR :        0.000436  BAR=B(i)*MU(i)/|MU|

  x   :       -0.000668  B(i)=(B(i,j,j)+B(j,i,j)+B(j,j,i))/3
  y   :        0.003824
  z   :       -0.000171
  VEC :        0.003886  norm of Beta VEC

    dQ(   3)(w=1520.3 cm^-1)dQ(   9)(w=3280.0 cm^-1)( -0.080000;  0.040000,  0.040000)
               x                y                z
   xx.        -0.000008        -0.000146        -0.001145
   xy.        -0.000146         0.000028        -0.000347
   xz.        -0.001145        -0.000347        -0.000069
   yx.        -0.000147         0.000027        -0.000346
   yy.         0.000027         0.000046         0.000954
   yz.        -0.000346         0.000954         0.000390
   zx.        -0.001146        -0.000346        -0.000069
   zy.        -0.000346         0.000957         0.000390
   zz.        -0.000069         0.000390        -0.000036

  x   :       -0.000030  B(i)=(B(i,j,j)+B(j,i,j)+B(j,j,i))/5
  y   :        0.000174
  z   :       -0.000136
  BAR :        0.000064  BAR=B(i)*MU(i)/|MU|

  x   :       -0.000049  B(i)=(B(i,j,j)+B(j,i,j)+B(j,j,i))/3
  y   :        0.000290
  z   :       -0.000226
  VEC :        0.000371  norm of Beta VEC

    dQ(   4)(w=1739.8 cm^-1)dQ(   9)(w=3280.0 cm^-1)( -0.080000;  0.040000,  0.040000)
               x                y                z
   xx.         0.000610         0.000340         0.000001
   xy.         0.000340        -0.004053         0.000000
   xz.         0.000001         0.000000         0.004447
   yx.         0.000329        -0.004116         0.000000
   yy.        -0.004116        -0.000476        -0.000003
   yz.         0.000000        -0.000003        -0.000636
   zx.         0.000001         0.000000         0.004498
   zy.         0.000000        -0.000003        -0.000638
   zz.         0.004498        -0.000638        -0.000004

  x   :        0.000598  B(i)=(B(i,j,j)+B(j,i,j)+B(j,j,i))/5
  y   :       -0.000466
  z   :       -0.000004
  BAR :       -0.000582  BAR=B(i)*MU(i)/|MU|

  x   :        0.000996  B(i)=(B(i,j,j)+B(j,i,j)+B(j,j,i))/3
  y   :       -0.000777
  z   :       -0.000007
  VEC :        0.001263  norm of Beta VEC

    dQ(   5)(w=1739.8 cm^-1)dQ(   9)(w=3280.0 cm^-1)( -0.080000;  0.040000,  0.040000)
               x                y                z
   xx.         0.003500         0.000710        -0.000006
   xy.         0.000710         0.001870         0.000000
   xz.        -0.000006         0.000000         0.000388
   yx.         0.000706         0.001846         0.000000
   yy.         0.001846         0.000398         0.000005
   yz.         0.000000         0.000005        -0.000449
   zx.        -0.000005         0.000000         0.000345
   zy.         0.000000         0.000004        -0.000461
   zz.         0.000345        -0.000461        -0.000002

  x   :        0.003428  B(i)=(B(i,j,j)+B(j,i,j)+B(j,j,i))/5
  y   :        0.000390
  z   :       -0.000001
  BAR :       -0.003316  BAR=B(i)*MU(i)/|MU|

  x   :        0.005714  B(i)=(B(i,j,j)+B(j,i,j)+B(j,j,i))/3
  y   :        0.000649
  z   :       -0.000002
  VEC :        0.005751  norm of Beta VEC

    dQ(   6)(w=3186.7 cm^-1)dQ(   9)(w=3280.0 cm^-1)( -0.080000;  0.040000,  0.040000)
               x                y                z
   xx.         0.001387         0.000668        -0.000005
   xy.         0.000668        -0.003718         0.000000
   xz.        -0.000005         0.000000        -0.003718
   yx.         0.000649        -0.003828         0.000000
   yy.        -0.003828        -0.000242        -0.000005
   yz.         0.000000        -0.000005         0.000649
   zx.        -0.000005         0.000000        -0.003828
   zy.         0.000000        -0.000005         0.000668
   zz.        -0.003828         0.000668         0.000002

  x   :       -0.003717  B(i)=(B(i,j,j)+B(j,i,j)+B(j,j,i))/5
  y   :        0.000649
  z   :       -0.000005
  BAR :        0.003607  BAR=B(i)*MU(i)/|MU|

  x   :       -0.006195  B(i)=(B(i,j,j)+B(j,i,j)+B(j,j,i))/3
  y   :        0.001081
  z   :       -0.000008
  VEC :        0.006289  norm of Beta VEC

    dQ(   7)(w=3280.0 cm^-1)dQ(   9)(w=3280.0 cm^-1)( -0.080000;  0.040000,  0.040000)
               x                y                z
   xx.        -0.000250         0.000595         0.001815
   xy.         0.000595        -0.000107         0.000006
   xz.         0.001815         0.000006        -0.000107
   yx.         0.000625        -0.000102        -0.000006
   yy.        -0.000102         0.001463         0.001815
   yz.        -0.000006         0.001815         0.000625
   zx.         0.001907         0.000000        -0.000102
   zy.         0.000000         0.001907         0.000595
   zz.        -0.000102         0.000595         0.004460

  x   :       -0.000274  B(i)=(B(i,j,j)+B(j,i,j)+B(j,j,i))/5
  y   :        0.001604
  z   :        0.004891
  BAR :       -0.000939  BAR=B(i)*MU(i)/|MU|

  x   :       -0.000456  B(i)=(B(i,j,j)+B(j,i,j)+B(j,j,i))/3
  y   :        0.002674
  z   :        0.008152
  VEC :        0.008591  norm of Beta VEC

    dQ(   8)(w=3280.0 cm^-1)dQ(   9)(w=3280.0 cm^-1)( -0.080000;  0.040000,  0.040000)
               x                y                z
   xx.         0.000817        -0.001900         0.000568
   xy.        -0.001900         0.000349         0.000002
   xz.         0.000568         0.000002         0.000349
   yx.        -0.001996         0.000332        -0.000002
   yy.         0.000332        -0.004669         0.000568
   yz.        -0.000002         0.000568        -0.001996
   zx.         0.000596         0.000000         0.000332
   zy.         0.000000         0.000596        -0.001900
   zz.         0.000332        -0.001900         0.001394

  x   :        0.000896  B(i)=(B(i,j,j)+B(j,i,j)+B(j,j,i))/5
  y   :       -0.005120
  z   :        0.001529
  BAR :       -0.001297  BAR=B(i)*MU(i)/|MU|

  x   :        0.001493  B(i)=(B(i,j,j)+B(j,i,j)+B(j,j,i))/3
  y   :       -0.008533
  z   :        0.002548
  VEC :        0.009030  norm of Beta VEC

    dQ(   9)(w=3280.0 cm^-1)dQ(   9)(w=3280.0 cm^-1)( -0.080000;  0.040000,  0.040000)
               x                y                z
   xx.        -0.000002         0.000005        -0.000685
   xy.         0.000005        -0.000001         0.001882
   xz.        -0.000685         0.001882        -0.000001
   yx.         0.000005        -0.000001         0.001848
   yy.        -0.000001         0.000012        -0.000685
   yz.         0.001848        -0.000685         0.000005
   zx.        -0.000719         0.001847        -0.000001
   zy.         0.001847        -0.000719         0.000005
   zz.        -0.000001         0.000005        -0.001682

  x   :       -0.000002  B(i)=(B(i,j,j)+B(j,i,j)+B(j,j,i))/5
  y   :        0.000013
  z   :       -0.001845
  BAR :        0.000462  BAR=B(i)*MU(i)/|MU|

  x   :       -0.000004  B(i)=(B(i,j,j)+B(j,i,j)+B(j,j,i))/3
  y   :        0.000022
  z   :       -0.003075
  VEC :        0.003075  norm of Beta VEC
 STEP CPU TIME =     0.50 TOTAL CPU TIME =        3.9 (    0.1 MIN)
 TOTAL WALL CLOCK TIME=        5.3 SECONDS, CPU UTILIZATION IS  73.73%
$TDHFX : read keyword = [$END                                                                            ]
$TDHFX Parameters:end
                896004  WORDS OF DYNAMIC MEMORY USED
 EXECUTION OF GAMESS TERMINATED NORMALLY Tue Sep 13 13:59:24 2016
 DDI: 263624 bytes (0.3 MB / 0 MWords) used by master data server.

 ----------------------------------------
 CPU timing information for all processes
 ========================================
 0: 3.888 + 0.92 = 3.980
 1: 7.372 + 0.28 = 7.400
 ----------------------------------------
----- accounting info -----
Files used on the master node g4noden2 were:
-rw-r--r-- 1 g4rosendo g4   15258 sep 13 13:59 /scratch/g4rosendo/exam39.dat
-rw-r--r-- 1 g4rosendo g4   10076 sep 13 13:59 /scratch/g4rosendo/exam39.F05
-rw-r--r-- 1 g4rosendo g4 1897760 sep 13 13:59 /scratch/g4rosendo/exam39.F10
-rw-r--r-- 1 g4rosendo g4   18480 sep 13 13:59 /scratch/g4rosendo/exam39.F18
-rw-r--r-- 1 g4rosendo g4 2330752 sep 13 13:59 /scratch/g4rosendo/exam39.F201
-rw-r--r-- 1 g4rosendo g4  312216 sep 13 13:59 /scratch/g4rosendo/exam39.F202
-rw-r--r-- 1 g4rosendo g4  173560 sep 13 13:59 /scratch/g4rosendo/exam39.F203
-rw-r--r-- 1 g4rosendo g4    1216 sep 13 13:59 /scratch/g4rosendo/exam39.F204
-rw-r--r-- 1 g4rosendo g4   27976 sep 13 13:59 /scratch/g4rosendo/exam39.F205
-rw-r--r-- 1 g4rosendo g4  625792 sep 13 13:59 /scratch/g4rosendo/exam39.F206
-rw-r--r-- 1 g4rosendo g4  104448 sep 13 13:59 /scratch/g4rosendo/exam39.F207
-rw-r--r-- 1 g4rosendo g4  524312 sep 13 13:59 /scratch/g4rosendo/exam39.F208
-rw-r--r-- 1 g4rosendo g4   27976 sep 13 13:59 /scratch/g4rosendo/exam39.F209
-rw-r--r-- 1 g4rosendo g4  104448 sep 13 13:59 /scratch/g4rosendo/exam39.F210
-rw-r--r-- 1 g4rosendo g4  521040 sep 13 13:59 /scratch/g4rosendo/exam39.F211
-rw-r--r-- 1 g4rosendo g4  104448 sep 13 13:59 /scratch/g4rosendo/exam39.F212
-rw-r--r-- 1 g4rosendo g4  835624 sep 13 13:59 /scratch/g4rosendo/exam39.F213
-rw-r--r-- 1 g4rosendo g4  312480 sep 13 13:59 /scratch/g4rosendo/exam39.F214
-rw-r--r-- 1 g4rosendo g4  832352 sep 13 13:59 /scratch/g4rosendo/exam39.F215
-rw-r--r-- 1 g4rosendo g4    9752 sep 13 13:59 /scratch/g4rosendo/exam39.F216
-rw-r--r-- 1 g4rosendo g4       0 sep 13 13:59 /scratch/g4rosendo/exam39.nodes.mpd
mar sep 13 13:59:26 CEST 2016
11.532u 0.328s 0:09.38 126.3%	0+0k 63608+32840io 130pf+0w
