----- GAMESS execution script 'rungms' -----
This job is running on host g4noden2
under operating system Linux at mar sep 13 13:58:58 CEST 2016
Available scratch disk space (Kbyte units) at beginning of the job is
Filesystem           1K-blocks      Used Available Use% Mounted on
/dev/mapper/vgsys-scratch
                     941038652  50795572 890243080   6% /scratch
GAMESS temporary binary files will be written to /scratch/g4rosendo
GAMESS supplementary output files will be written to /scratch/g4rosendo
Copying input file exam38.inp to your run's scratch directory...
MPI kickoff will run GAMESS on 2 cores in 2 nodes.
The binary to be executed is /aplic/gamess/gamess-2013r1_intel11.1_mkl11.1_ompi-1.4.2/gamess.00.x
MPI will run 2 compute processes and 2 data servers,
    placing  of each process type onto each node.
The scratch disk space on each node is /scratch/g4rosendo, with free space
Filesystem           1K-blocks      Used Available Use% Mounted on
/dev/mapper/vgsys-scratch
                     941038652  50795596 890243056   6% /scratch
          ******************************************************
          *         GAMESS VERSION =  1 MAY 2013 (R1)          *
          *             FROM IOWA STATE UNIVERSITY             *
          * M.W.SCHMIDT, K.K.BALDRIDGE, J.A.BOATZ, S.T.ELBERT, *
          *   M.S.GORDON, J.H.JENSEN, S.KOSEKI, N.MATSUNAGA,   *
          *          K.A.NGUYEN, S.J.SU, T.L.WINDUS,           *
          *       TOGETHER WITH M.DUPUIS, J.A.MONTGOMERY       *
          *         J.COMPUT.CHEM.  14, 1347-1363(1993)        *
          **************** 64 BIT INTEL VERSION ****************

  SINCE 1993, STUDENTS AND POSTDOCS WORKING AT IOWA STATE UNIVERSITY
  AND ALSO IN THEIR VARIOUS JOBS AFTER LEAVING ISU HAVE MADE IMPORTANT
  CONTRIBUTIONS TO THE CODE:
     IVANA ADAMOVIC, CHRISTINE AIKENS, YURI ALEXEEV, POOJA ARORA,
     ANDREY ASADCHEV, ROB BELL, PRADIPTA BANDYOPADHYAY, JONATHAN BENTZ,
     BRETT BODE, GALINA CHABAN, WEI CHEN, CHEOL HO CHOI, PAUL DAY,
     ALBERT DEFUSCO, TIM DUDLEY, DMITRI FEDOROV, GRAHAM FLETCHER,
     MARK FREITAG, KURT GLAESEMANN, DAN KEMP, GRANT MERRILL,
     NORIYUKI MINEZAWA, JONATHAN MULLIN, TAKESHI NAGATA,
     SEAN NEDD, HEATHER NETZLOFF, BOSILJKA NJEGIC, RYAN OLSON, MIKE PAK,
     JIM SHOEMAKER, LYUDMILA SLIPCHENKO, SAROM SOK, JIE SONG,
     TETSUYA TAKETSUGU, SIMON WEBB, SOOHAENG YOO, FEDERICO ZAHARIEV

  ADDITIONAL CODE HAS BEEN PROVIDED BY COLLABORATORS IN OTHER GROUPS:
     IOWA STATE UNIVERSITY:
          JOE IVANIC, LAIMUTIS BYTAUTAS, KLAUS RUEDENBERG
     UNIVERSITY OF TOKYO: KIMIHIKO HIRAO, TAKAHITO NAKAJIMA,
          TAKAO TSUNEDA, MUNEAKI KAMIYA, SUSUMU YANAGISAWA,
          KIYOSHI YAGI, MAHITO CHIBA, SEIKEN TOKURA, NAOAKI KAWAKAMI
     UNIVERSITY OF AARHUS: FRANK JENSEN
     UNIVERSITY OF IOWA: VISVALDAS KAIRYS, HUI LI
     NATIONAL INST. OF STANDARDS AND TECHNOLOGY: WALT STEVENS, DAVID GARMER
     UNIVERSITY OF PISA: BENEDETTA MENNUCCI, JACOPO TOMASI
     UNIVERSITY OF MEMPHIS: HENRY KURTZ, PRAKASHAN KORAMBATH
     UNIVERSITY OF ALBERTA: TOBY ZENG, MARIUSZ KLOBUKOWSKI
     UNIVERSITY OF NEW ENGLAND: MARK SPACKMAN
     MIE UNIVERSITY: HIROAKI UMEDA
     MICHIGAN STATE UNIVERSITY:
          KAROL KOWALSKI, MARTA WLOCH, JEFFREY GOUR, JESSE LUTZ,
          WEI LI, PIOTR PIECUCH
     UNIVERSITY OF SILESIA: MONIKA MUSIAL, STANISLAW KUCHARSKI
     FACULTES UNIVERSITAIRES NOTRE-DAME DE LA PAIX:
          OLIVIER QUINET, BENOIT CHAMPAGNE
     UNIVERSITY OF CALIFORNIA - SANTA BARBARA: BERNARD KIRTMAN
     INSTITUTE FOR MOLECULAR SCIENCE:
          KAZUYA ISHIMURA, MICHIO KATOUDA, AND SHIGERU NAGASE
     UNIVERSITY OF NOTRE DAME: DAN CHIPMAN
     KYUSHU UNIVERSITY:
          HARUYUKI NAKANO,
          FENG LONG GU, JACEK KORCHOWIEC, MARCIN MAKOWSKI, AND YURIKO AOKI,
          HIROTOSHI MORI AND EISAKU MIYOSHI
     PENNSYLVANIA STATE UNIVERSITY:
          TZVETELIN IORDANOV, CHET SWALINA, JONATHAN SKONE,
          SHARON HAMMES-SCHIFFER
     WASEDA UNIVERSITY:
          MASATO KOBAYASHI, TOMOKO AKAMA, TSUGUKI TOUMA,
          TAKESHI YOSHIKAWA, YASUHIRO IKABATA, HIROMI NAKAI
     NANJING UNIVERSITY: SHUHUA LI
     UNIVERSITY OF NEBRASKA:
          PEIFENG SU, DEJUN SI, NANDUN THELLAMUREGE, YALI WANG, HUI LI
     UNIVERSITY OF ZURICH:
          ROBERTO PEVERATI, KIM BALDRIDGE
     N. COPERNICUS UNIVERSITY AND JACKSON STATE UNIVERSITY:
          MARIA BARYSZ

 EXECUTION OF GAMESS BEGUN Tue Sep 13 13:59:00 2016

            ECHO OF THE FIRST FEW INPUT CARDS -
 INPUT CARD>! EXAM 38.                                                                      
 INPUT CARD>!  Analytic gradients for Model Core Potentials (MCP),                          
 INPUT CARD>!  with a DZP quality basis, for BiCl3.  Model Core                             
 INPUT CARD>!  Potentials account for scalar relativity effects,                            
 INPUT CARD>!  and preserve all valence orbital radial nodes.                               
 INPUT CARD>!                                                                               
 INPUT CARD>!  The latter point stands in contrast to the                                   
 INPUT CARD>!  Effective Core Potential (ECP) pseudopotentials.                             
 INPUT CARD>!                                                                               
 INPUT CARD>!  FINAL RHF E= -116.3966190315, RMS grad= 0.0053955                            
 INPUT CARD>!  FINAL RHF E= -116.3972798614, RMS grad= 0.0036800                            
 INPUT CARD>!  FINAL RHF E= -116.3976422730, RMS grad= 0.0014247                            
 INPUT CARD>!  FINAL RHF E= -116.3976891702, RMS grad= 0.0001137                            
 INPUT CARD>!  FINAL RHF E= -116.3976900826, RMS grad= 0.0000485                            
 INPUT CARD>!  FINAL RHF E= -116.3976902409, RMS grad= 0.0000001                            
 INPUT CARD>!                                                                               
 INPUT CARD> $contrl scftyp=rhf runtyp=optimize pp=mcp ispher=1                             
 INPUT CARD>         coord=zmt nzvar=6 $end                                                 
 INPUT CARD> $system timlim=5 mwords=2 $end                                                 
 INPUT CARD> $basis  gbasis=mcp-dzp $end                                                    
 INPUT CARD> $statpt opttol=1.0d-5 $end                                                     
 INPUT CARD> $data                                                                          
 INPUT CARD>BiCl3                                                                           
 INPUT CARD>Cnv 3                                                                           
 INPUT CARD>                                                                                
 INPUT CARD>Bi                                                                              
 INPUT CARD>Cl  1 rBiCl                                                                     
 INPUT CARD>Cl  1 rBiCl  2 aClBiCl                                                          
 INPUT CARD>Cl  1 rBiCl  2 aClBiCl  3 aClBiCl +1                                            
 INPUT CARD>                                                                                
 INPUT CARD>rBiCl=2.48                                                                      
 INPUT CARD>aClBiCl=99.0                                                                    
 INPUT CARD> $end                                                                           
    2000000 WORDS OF MEMORY AVAILABLE

     $BASIS REQUESTS READING THE "MCP-DZP " BASIS SET FROM AN EXTERNAL FILE


     RUN TITLE
     ---------
 BiCl3                                                                           

 THE POINT GROUP OF THE MOLECULE IS CNV     
 THE ORDER OF THE PRINCIPAL AXIS IS     3

 YOUR FULLY SUBSTITUTED Z-MATRIX IS
 BI  
 CL     1   2.4800000
 CL     1   2.4800000  2   99.0000
 CL     1   2.4800000  2   99.0000  3   99.0000  1

 THE MOMENTS OF INERTIA ARE (AMU-ANGSTROM**2)
 IXX=   347.108   IYY=   347.108   IZZ=   497.434

 THE EXTERNAL BASIS SET FILE BEING READ IS
     "/aplic/gamess/gamess-2013r1_intel11.1_mkl11.1_ompi-1.4.2/auxdata/MCP/MCP-DZP"
 *** WARNING! ATOM   1 SHELL    1 TYPE S HAS NORMALIZATION   1.31210905
 *** WARNING! ATOM   1 SHELL    3 TYPE S HAS NORMALIZATION   1.26026823
 *** WARNING! ATOM   1 SHELL    4 TYPE P HAS NORMALIZATION   2.92283493
 *** WARNING! ATOM   1 SHELL    6 TYPE P HAS NORMALIZATION   1.56318048
 *** WARNING! ATOM   2 SHELL    9 TYPE S HAS NORMALIZATION   1.43542385
 *** WARNING! ATOM   2 SHELL   11 TYPE P HAS NORMALIZATION   1.59910648

 ATOM      ATOMIC                      COORDINATES (BOHR)
           CHARGE         X                   Y                   Z
 BI         83.0     0.0000000000        0.0000000000        0.7496163096
 CL         17.0     2.0574789678       -3.5636581077       -1.4932825094
 CL         17.0     2.0574789678        3.5636581077       -1.4932825094
 CL         17.0    -4.1149579356        0.0000000000       -1.4932825094

          INTERNUCLEAR DISTANCES (ANGS.)
          ------------------------------

                1 BI         2 CL         3 CL         4 CL    

   1 BI      0.0000000    2.4800000 *  2.4800000 *  2.4800000 *
   2 CL      2.4800000 *  0.0000000    3.7716136    3.7716136  
   3 CL      2.4800000 *  3.7716136    0.0000000    3.7716136  
   4 CL      2.4800000 *  3.7716136    3.7716136    0.0000000  

  * ... LESS THAN  3.000


     ATOMIC BASIS SET
     ----------------
 THE CONTRACTED PRIMITIVE FUNCTIONS HAVE BEEN UNNORMALIZED
 THE CONTRACTED BASIS FUNCTIONS ARE NOW NORMALIZED TO UNITY

  SHELL TYPE  PRIMITIVE        EXPONENT          CONTRACTION COEFFICIENT(S)

 BI        

      1   S       1          5462.3556000   -0.028611062662
      1   S       2           165.4015000    0.124131158125
      1   S       3            36.9771060   -0.326602311878
      1   S       4             7.1892336    0.695514236102
      1   S       5             1.9032417   -0.659353560393
      1   S       6             1.0203835   -0.661598578976

      2   S       7             0.3175052    1.000000000000

      3   S       8             0.1541883    0.774291032216
      3   S       9             0.0688121    0.246911878122

      4   P      10           601.0997700    0.047779290259
      4   P      11            45.1958310   -0.196664701726
      4   P      12             9.7074724    0.503958413134
      4   P      13             1.9440737   -0.649678394376
      4   P      14             1.1873132   -0.482102038122

      5   P      15             0.2425512    1.000000000000

      6   P      16             0.1034533    0.795919756611
      6   P      17             0.0441151    0.241397271217

      7   D      18           334.8962900    0.028088501239
      7   D      19            89.7887650    0.128944005689
      7   D      20            14.9632700   -0.149485406595
      7   D      21             9.4008471   -0.215855409523
      7   D      22             1.9070705    0.513147622638
      7   D      23             0.7894530    0.485225821407
      7   D      24             0.2980434    0.147342006500

      8   D      25             1.7178100   -0.073533951228
      8   D      26             0.2832380    0.649394569281
      8   D      27             0.1123080    0.447441703229

 CL        

     19   S      28           104.9788900    0.016125982128
     19   S      29             3.5078200   -0.754344801498
     19   S      30             0.4438040    1.138426040767

     20   S      31             0.1627530    1.000000000000

     21   P      32            37.7868500   -0.108544149828
     21   P      33             7.4179980   -0.351806304572
     21   P      34             0.5667653    0.982422101443

     22   P      35             0.1600164    1.000000000000

     23   D      36             6.1293380    0.038978993459
     23   D      37             1.0242960    0.479679919505
     23   D      38             0.3400060    0.626641894844

 TOTAL NUMBER OF BASIS SET SHELLS             =   23
 NUMBER OF CARTESIAN GAUSSIAN BASIS FUNCTIONS =   66
 NOTE: THIS RUN WILL RESTRICT THE MO VARIATION SPACE TO SPHERICAL HARMONICS.
 THE NUMBER OF ORBITALS KEPT IN THE VARIATIONAL SPACE WILL BE PRINTED LATER.
 NUMBER OF ELECTRONS                          =  134
 CHARGE OF MOLECULE                           =    0
 SPIN MULTIPLICITY                            =    1
 NUMBER OF OCCUPIED ORBITALS (ALPHA)          =   67
 NUMBER OF OCCUPIED ORBITALS (BETA )          =   67
 TOTAL NUMBER OF ATOMS                        =    4
 THE NUCLEAR REPULSION ENERGY IS     1024.8734143289
 NOTE THIS RUN IS USING CORE POTENTIALS, AND THE NUMBER OF ELECTRONS,
 OCCUPIED ORBITALS, AND NUCLEAR REPULSION ENERGY WILL BE ADJUSTED BELOW
 AFTER REMOVAL OF THE CORE CHARGES.

     $CONTRL OPTIONS
     ---------------
 SCFTYP=RHF          RUNTYP=OPTIMIZE     EXETYP=RUN     
 MPLEVL=       0     CITYP =NONE         CCTYP =NONE         VBTYP =NONE    
 DFTTYP=NONE         TDDFT =NONE    
 MULT  =       1     ICHARG=       0     NZVAR =       6     COORD =ZMT     
 PP    =MCP          RELWFN=NONE         LOCAL =NONE         NUMGRD=       F
 ISPHER=       1     NOSYM =       0     MAXIT =      30     UNITS =ANGS    
 PLTORB=       F     MOLPLT=       F     AIMPAC=       F     FRIEND=        
 NPRINT=       7     IREST =       0     GEOM  =INPUT   
 NORMF =       0     NORMP =       0     ITOL  =      20     ICUT  =       9
 INTTYP=BEST         GRDTYP=BEST         QMTTOL= 1.0E-06

     $SYSTEM OPTIONS
     ---------------
  REPLICATED MEMORY=     2000000 WORDS (ON EVERY NODE).
 DISTRIBUTED MEMDDI=           0 MILLION WORDS IN AGGREGATE,
 MEMDDI DISTRIBUTED OVER   1 PROCESSORS IS           0 WORDS/PROCESSOR.
 TOTAL MEMORY REQUESTED ON EACH PROCESSOR=     2000000 WORDS.
 TIMLIM=           5.00 MINUTES, OR       0.0 DAYS.
 PARALL= F  BALTYP=  DLB     KDIAG=    0  COREFL= F
 MXSEQ2=     300 MXSEQ3=     150

          ----------------
          MODEL-POTENTIALS
          ----------------
 BI      MCP-DZP 
 *******************************************************************************
 * Element : Bi
 * Basis : MCP segmented  (612/512/73)
 * Effective Charge : 15.0
 * Term : 4S   Valence configuration : 1s(2)2p(3)
 * SCF energy : -71.76783515 a.u.
 * Valence Correlation energy : -0.04966287 a.u.
 * References
 * Authors : E. Miyoshi, Y. Sakai, K. Tanaka, M. Masamura,   [inner and valence s
 * Journal : J. Mol. Struct. (THEOCHEM), 451, 73-79 (1998)
 * Authors : T. Noro, M. Sekiya, Y. Osanai, E. Miyoshi, T. Koga,   [valence corre
 * Journal : J. Chem. Phys. 119, 5142 (2003)
 *******************************************************************************
 *** WARNING! THE MODEL-POTENTIAL ATOM Z=  83
    CORE-SHELL   12 TYPE F HAS NORMALIZATION   0.99983717 ***
 CL      MCP-DZP 
 *******************************************************************************
 * Element : Cl
 * Basis : MCP segmented  (31/31/3)
 * Effective Charge : 7.0
 * Term : 2P   Valence configuration : 1s(2)2p(5)
 * SCF energy : -14.81652207 a.u.
 * Valence Correlation energy : -0.13442071 a.u.
 * References
 * Authors : Y. Sakai, E. Miyoshi, M. Klobukowski, S. Huzinaga,   [inner and vale
 * Journal : J. Chem. Phys. 106, 8084-8092 (1997)
 * Authors : M. Sekiya, T. Noro, T. Koga, H. Matsuyama,   [valence correlated set
 * Journal : J. Mol. Struct. (Theochem) 451, 51 (1998)
 *******************************************************************************
 CL      MCP-DZP 
 *******************************************************************************
 * Element : Cl
 * Basis : MCP segmented  (31/31/3)
 * Effective Charge : 7.0
 * Term : 2P   Valence configuration : 1s(2)2p(5)
 * SCF energy : -14.81652207 a.u.
 * Valence Correlation energy : -0.13442071 a.u.
 * References
 * Authors : Y. Sakai, E. Miyoshi, M. Klobukowski, S. Huzinaga,   [inner and vale
 * Journal : J. Chem. Phys. 106, 8084-8092 (1997)
 * Authors : M. Sekiya, T. Noro, T. Koga, H. Matsuyama,   [valence correlated set
 * Journal : J. Mol. Struct. (Theochem) 451, 51 (1998)
 *******************************************************************************
 CL      MCP-DZP 
 *******************************************************************************
 * Element : Cl
 * Basis : MCP segmented  (31/31/3)
 * Effective Charge : 7.0
 * Term : 2P   Valence configuration : 1s(2)2p(5)
 * SCF energy : -14.81652207 a.u.
 * Valence Correlation energy : -0.13442071 a.u.
 * References
 * Authors : Y. Sakai, E. Miyoshi, M. Klobukowski, S. Huzinaga,   [inner and vale
 * Journal : J. Chem. Phys. 106, 8084-8092 (1997)
 * Authors : M. Sekiya, T. Noro, T. Koga, H. Matsuyama,   [valence correlated set
 * Journal : J. Mol. Struct. (Theochem) 451, 51 (1998)
 *******************************************************************************
 THE MCP PLACED ON ATOM    1 REMOVES ZCORE= 68
 THE MCP PLACED ON ATOM    2 REMOVES ZCORE= 10
 THE MCP PLACED ON ATOM    3 REMOVES ZCORE= 10
 THE MCP PLACED ON ATOM    4 REMOVES ZCORE= 10

 THE MCP RUN REMOVES   98 CORE ELECTRONS, AND THE SAME NUMBER OF PROTONS.
 NUMBER OF ELECTRONS KEPT IN THE CALCULATION IS =   36
 NUMBER OF OCCUPIED ORBITALS (ALPHA) KEPT IS    =   18
 NUMBER OF OCCUPIED ORBITALS (BETA ) KEPT IS    =   18
 THE ADJUSTED NUCLEAR REPULSION ENERGY=       87.8389199244

     MODEL-POTENTIAL PARAMETERS
     --------------------------

  NO.    N                        ALPHA           A

 BI        
   1     0                      353.252270    2.058224
   2     0                        8.788539    1.241911
   3     0                        3.130933    0.501328
   1     1                     4770.344500  474.021260
   2     1                       60.029685   14.923593
   3     1                        1.156867    0.160388

 CL        
   1     0                      112.054270    0.379239
   2     0                        6.860978    0.815318
   3     0                        2.789429   -0.093121
   1     1                     1667.525600    5.022893
   2     1                      107.067730    4.692408
   3     1                        3.574553    0.141406

 CL        
   1     0                      112.054270    0.379239
   2     0                        6.860978    0.815318
   3     0                        2.789429   -0.093121
   1     1                     1667.525600    5.022893
   2     1                      107.067730    4.692408
   3     1                        3.574553    0.141406

 CL        
   1     0                      112.054270    0.379239
   2     0                        6.860978    0.815318
   3     0                        2.789429   -0.093121
   1     1                     1667.525600    5.022893
   2     1                      107.067730    4.692408
   3     1                        3.574553    0.141406

     CORE-SHELL BASIS SET FOR MODEL-POTENTIAL ATOMS
     ----------------------------------------------

 SHELL TYPE PRIM    EXPONENT          CONTRACTION COEFFICIENTS

 BI        

   1   S    PARAMETER B =      6719.609000
   1   S    1    566402.900000  293.115763 (  0.019920) 
   1   S    2     42728.246000  229.734812 (  0.108463) 
   1   S    3      6427.628100  203.039920 (  0.396856) 
   1   S    4      1384.301900   98.014910 (  0.605981) 
   1   S    5      2774.629200   -1.293510 ( -0.004747) 
   1   S    6       278.765410    1.874527 (  0.038553) 
   1   S    7       119.619990    1.296754 (  0.050303) 
   1   S    8       208.948390    0.396411 (  0.010121) 
   1   S    9        34.714071   -0.366329 ( -0.035940) 
   1   S   10        14.224318   -0.047538 ( -0.009107) 
   1   S   11         8.497441    0.000000 (  0.000000) 
   1   S   12         3.694375    0.000000 (  0.000000) 
   1   S   13         1.670083    0.000000 (  0.000000) 
   1   S   14         0.690577    0.000000 (  0.000000) 

   2   S    PARAMETER B =      1219.525600
   2   S   15    566402.900000  121.697228 (  0.008270) 
   2   S   16     42728.246000   95.382259 (  0.045032) 
   2   S   17      6427.628100   84.298877 (  0.164768) 
   2   S   18      1384.301900   40.694192 (  0.251593) 
   2   S   19      2774.629200   16.116309 (  0.059150) 
   2   S   20       278.765410  -23.355412 ( -0.480339) 
   2   S   21       119.619990  -16.156746 ( -0.626745) 
   2   S   22       208.948390    0.440421 (  0.011244) 
   2   S   23        34.714071   -0.406999 ( -0.039930) 
   2   S   24        14.224318   -0.052816 ( -0.010118) 
   2   S   25         8.497441    0.038108 (  0.010743) 
   2   S   26         3.694375    0.004894 (  0.002577) 
   2   S   27         1.670083    0.000000 (  0.000000) 
   2   S   28         0.690577    0.000000 (  0.000000) 

   3   S    PARAMETER B =       299.650820
   3   S   29    566402.900000   58.925397 (  0.004005) 
   3   S   30     42728.246000   46.183683 (  0.021804) 
   3   S   31      6427.628100   40.817105 (  0.079780) 
   3   S   32      1384.301900   19.703948 (  0.121820) 
   3   S   33      2774.629200    9.317797 (  0.034198) 
   3   S   34       278.765410  -13.503148 ( -0.277713) 
   3   S   35       119.619990   -9.341175 ( -0.362359) 
   3   S   36       208.948390  -11.643165 ( -0.297257) 
   3   S   37        34.714071   10.759632 (  1.055621) 
   3   S   38        14.224318    1.396272 (  0.267477) 
   3   S   39         8.497441   -0.069239 ( -0.019520) 
   3   S   40         3.694375   -0.008892 ( -0.004682) 
   3   S   41         1.670083    0.003475 (  0.003319) 
   3   S   42         0.690577    0.000399 (  0.000739) 

   4   S    PARAMETER B =        71.673200
   4   S   43    566402.900000   31.604436 (  0.002148) 
   4   S   44     42728.246000   24.770541 (  0.011695) 
   4   S   45      6427.628100   21.892304 (  0.042790) 
   4   S   46      1384.301900   10.568217 (  0.065338) 
   4   S   47      2774.629200    2.842784 (  0.010434) 
   4   S   48       278.765410   -4.119701 ( -0.084728) 
   4   S   49       119.619990   -2.849917 ( -0.110553) 
   4   S   50       208.948390  -12.925599 ( -0.329998) 
   4   S   51        34.714071   11.944751 (  1.171893) 
   4   S   52        14.224318    1.550065 (  0.296938) 
   4   S   53         8.497441   -4.625289 ( -1.303955) 
   4   S   54         3.694375   -0.593970 ( -0.312751) 
   4   S   55         1.670083    0.002466 (  0.002355) 
   4   S   56         0.690577    0.000283 (  0.000525) 

   5   S    PARAMETER B =        13.385447
   5   S   57    566402.900000   14.775125 (  0.001004) 
   5   S   58     42728.246000   11.579862 (  0.005467) 
   5   S   59      6427.628100   10.234308 (  0.020004) 
   5   S   60      1384.301900    4.940479 (  0.030545) 
   5   S   61      2774.629200    0.836882 (  0.003072) 
   5   S   62       278.765410   -1.212787 ( -0.024943) 
   5   S   63       119.619990   -0.838979 ( -0.032545) 
   5   S   64       208.948390   -7.268484 ( -0.185569) 
   5   S   65        34.714071    6.716922 (  0.658993) 
   5   S   66        14.224318    0.871652 (  0.166978) 
   5   S   67         8.497441   -4.431076 ( -1.249203) 
   5   S   68         3.694375   -0.569030 ( -0.299619) 
   5   S   69         1.670083    1.283078 (  1.225433) 
   5   S   70         0.690577    0.147388 (  0.272987) 

   6   P    PARAMETER B =      1047.837000
   6   P   71      8323.226600 2562.471534 (  0.022613) 
   6   P   72      1612.742700 2236.337422 (  0.153511) 
   6   P   73       466.391210 1455.296134 (  0.471057) 
   6   P   74       159.700050  391.082597 (  0.483278) 
   6   P   75        73.164884    9.685445 (  0.031754) 
   6   P   76        29.143820    3.882453 (  0.040224) 
   6   P   77        13.142588   -0.361309 ( -0.010129) 
   6   P   78         5.534688   -0.109308 ( -0.009033) 
   6   P   79         2.199622    0.000000 (  0.000000) 
   6   P   80         0.836347    0.000000 (  0.000000) 

   7   P    PARAMETER B =       249.676100
   7   P   81      8323.226600 1448.121520 (  0.012779) 
   7   P   82      1612.742700 1263.817757 (  0.086754) 
   7   P   83       466.391210  822.429752 (  0.266208) 
   7   P   84       159.700050  221.011996 (  0.273114) 
   7   P   85        73.164884 -155.832368 ( -0.510904) 
   7   P   86        29.143820  -62.466118 ( -0.647174) 
   7   P   87        13.142588   -1.214662 ( -0.034054) 
   7   P   88         5.534688   -0.367476 ( -0.030368) 
   7   P   89         2.199622    0.034109 (  0.008933) 
   7   P   90         0.836347    0.006532 (  0.005730) 

   8   P    PARAMETER B =        54.966000
   8   P   91      8323.226600  745.211856 (  0.006576) 
   8   P   92      1612.742700  650.361294 (  0.044644) 
   8   P   93       466.391210  423.222868 (  0.136991) 
   8   P   94       159.700050  113.732921 (  0.140545) 
   8   P   95        73.164884 -122.521647 ( -0.401693) 
   8   P   96        29.143820  -49.113371 ( -0.508834) 
   8   P   97        13.142588   24.421089 (  0.684658) 
   8   P   98         5.534688    7.388200 (  0.610565) 
   8   P   99         2.199622    0.058487 (  0.015317) 
   8   P  100         0.836347    0.011201 (  0.009825) 

   9   P    PARAMETER B =         8.493385
   9   P  101      8323.226600  319.436399 (  0.002819) 
   9   P  102      1612.742700  278.782660 (  0.019137) 
   9   P  103       466.391210  181.417680 (  0.058722) 
   9   P  104       159.700050   48.752482 (  0.060246) 
   9   P  105        73.164884  -57.730708 ( -0.189273) 
   9   P  106        29.143820  -23.141620 ( -0.239757) 
   9   P  107        13.142588   16.813211 (  0.471367) 
   9   P  108         5.534688    5.086561 (  0.420357) 
   9   P  109         2.199622   -2.989714 ( -0.782987) 
   9   P  110         0.836347   -0.572564 ( -0.502228) 

  10   D    PARAMETER B =       197.172680
  10   D  111       801.683790 7009.464907 (  0.035259) 
  10   D  112       219.910230 4578.740329 (  0.221517) 
  10   D  113        78.284208 1792.131025 (  0.528482) 
  10   D  114        30.390396  249.687832 (  0.385655) 
  10   D  115        27.155124    5.303718 (  0.009975) 
  10   D  116        11.305291    2.890253 (  0.025193) 
  10   D  117         4.636159    0.364725 (  0.015128) 
  10   D  118         2.938973   -0.033982 ( -0.003130) 
  10   D  119         1.117393   -0.010525 ( -0.005266) 
  10   D  120         0.392060   -0.000728 ( -0.002278) 

  11   D    PARAMETER B =        35.053900
  11   D  121       801.683790 3807.106655 (  0.019151) 
  11   D  122       219.910230 2486.892286 (  0.120315) 
  11   D  123        78.284208  973.376360 (  0.287039) 
  11   D  124        30.390396  135.615258 (  0.209464) 
  11   D  125        27.155124 -133.157176 ( -0.250446) 
  11   D  126        11.305291  -72.563926 ( -0.632511) 
  11   D  127         4.636159   -9.156937 ( -0.379808) 
  11   D  128         2.938973   -0.068874 ( -0.006343) 
  11   D  129         1.117393   -0.021332 ( -0.010672) 
  11   D  130         0.392060   -0.001476 ( -0.004616) 

  12   F    PARAMETER B =        13.188045
  12   F  131       136.445280 3984.526021 (  0.042544) 
  12   F  132        43.287788 1541.476056 (  0.217887) 
  12   F  133        16.562581  368.628578 (  0.452551) 
  12   F  134         6.542936   44.528037 (  0.441836) 
  12   F  135         2.418853    1.719836 (  0.160133) 

 CL        

  13   S    PARAMETER B =       104.884400
  13   S  136      3584.292200    7.505918 (  0.022735) 
  13   S  137       492.877360   11.793151 (  0.158185) 
  13   S  138       112.146460   12.074867 (  0.491624) 
  13   S  139        31.593867    4.394360 (  0.462683) 
  13   S  140        54.066098   -0.027876 ( -0.001962) 
  13   S  141         5.405644    0.032320 (  0.012792) 
  13   S  142         1.995106    0.010049 (  0.008399) 

  14   S    PARAMETER B =        10.607500
  14   S  143      3584.292200    2.299898 (  0.006966) 
  14   S  144       492.877360    3.613554 (  0.048470) 
  14   S  145       112.146460    3.699877 (  0.150639) 
  14   S  146        31.593867    1.346482 (  0.141771) 
  14   S  147        54.066098    1.471541 (  0.103554) 
  14   S  148         5.405644   -1.706126 ( -0.675251) 
  14   S  149         1.995106   -0.530476 ( -0.443385) 

  15   P    PARAMETER B =         8.072200
  15   P  150       223.907760   19.706326 (  0.015962) 
  15   P  151        49.160411   20.638136 (  0.111227) 
  15   P  152        15.077593   14.828898 (  0.350150) 
  15   P  153         5.222262    5.756572 (  0.511565) 
  15   P  154         1.862470    0.674874 (  0.217606) 

 CL        

  16   S    PARAMETER B =       104.884400
  16   S  155      3584.292200    7.505918 (  0.022735) 
  16   S  156       492.877360   11.793151 (  0.158185) 
  16   S  157       112.146460   12.074867 (  0.491624) 
  16   S  158        31.593867    4.394360 (  0.462683) 
  16   S  159        54.066098   -0.027876 ( -0.001962) 
  16   S  160         5.405644    0.032320 (  0.012792) 
  16   S  161         1.995106    0.010049 (  0.008399) 

  17   S    PARAMETER B =        10.607500
  17   S  162      3584.292200    2.299898 (  0.006966) 
  17   S  163       492.877360    3.613554 (  0.048470) 
  17   S  164       112.146460    3.699877 (  0.150639) 
  17   S  165        31.593867    1.346482 (  0.141771) 
  17   S  166        54.066098    1.471541 (  0.103554) 
  17   S  167         5.405644   -1.706126 ( -0.675251) 
  17   S  168         1.995106   -0.530476 ( -0.443385) 

  18   P    PARAMETER B =         8.072200
  18   P  169       223.907760   19.706326 (  0.015962) 
  18   P  170        49.160411   20.638136 (  0.111227) 
  18   P  171        15.077593   14.828898 (  0.350150) 
  18   P  172         5.222262    5.756572 (  0.511565) 
  18   P  173         1.862470    0.674874 (  0.217606) 

 CL        

  19   S    PARAMETER B =       104.884400
  19   S  174      3584.292200    7.505918 (  0.022735) 
  19   S  175       492.877360   11.793151 (  0.158185) 
  19   S  176       112.146460   12.074867 (  0.491624) 
  19   S  177        31.593867    4.394360 (  0.462683) 
  19   S  178        54.066098   -0.027876 ( -0.001962) 
  19   S  179         5.405644    0.032320 (  0.012792) 
  19   S  180         1.995106    0.010049 (  0.008399) 

  20   S    PARAMETER B =        10.607500
  20   S  181      3584.292200    2.299898 (  0.006966) 
  20   S  182       492.877360    3.613554 (  0.048470) 
  20   S  183       112.146460    3.699877 (  0.150639) 
  20   S  184        31.593867    1.346482 (  0.141771) 
  20   S  185        54.066098    1.471541 (  0.103554) 
  20   S  186         5.405644   -1.706126 ( -0.675251) 
  20   S  187         1.995106   -0.530476 ( -0.443385) 

  21   P    PARAMETER B =         8.072200
  21   P  188       223.907760   19.706326 (  0.015962) 
  21   P  189        49.160411   20.638136 (  0.111227) 
  21   P  190        15.077593   14.828898 (  0.350150) 
  21   P  191         5.222262    5.756572 (  0.511565) 
  21   P  192         1.862470    0.674874 (  0.217606) 

          ----------------
          PROPERTIES INPUT
          ----------------

     MOMENTS            FIELD           POTENTIAL          DENSITY
 IEMOM =       1   IEFLD =       0   IEPOT =       0   IEDEN =       0
 WHERE =COMASS     WHERE =NUCLEI     WHERE =NUCLEI     WHERE =NUCLEI  
 OUTPUT=BOTH       OUTPUT=BOTH       OUTPUT=BOTH       OUTPUT=BOTH    
 IEMINT=       0   IEFINT=       0                     IEDINT=       0
                                                       MORB  =       0
          EXTRAPOLATION IN EFFECT
          DIIS IN EFFECT
 ORBITAL PRINTING OPTION: NPREO=     1    66     2     1

     -------------------------------
     INTEGRAL TRANSFORMATION OPTIONS
     -------------------------------
     NWORD  =            0
     CUTOFF = 1.0E-09     MPTRAN =       0
     DIRTRF =       F     AOINTS =DUP     

          ----------------------
          INTEGRAL INPUT OPTIONS
          ----------------------
 NOPK  =       1 NORDER=       0 SCHWRZ=       F

   --- ENCODED Z MATRIX ---
 COORD  TYPE   I   J   K   L   M   N
    1      1    4   1
    2      1    2   1
    3      2    2   1   4
    4      1    3   1
    5      2    3   1   4
    6      2    3   1   2

 THE DETERMINANT OF THE G MATRIX IS 10**(   -12)

 THE DETERMINANT OF THE G MATRIX IS 10**(   -12)
 * * * WARNING * * *
 YOUR B MATRIX HAS A SMALL DETERMINANT.
 THIS SUGGESTS YOU MAY HAVE BADLY CHOSEN COORDINATES.


                     --------------------
                     INTERNAL COORDINATES
                     --------------------

                 - - ATOMS - -         COORDINATE      COORDINATE
 NO.   TYPE    I  J  K  L  M  N        (BOHR,RAD)       (ANG,DEG)
 ----------------------------------------------------------------
   1 STRETCH   4  1                     4.6865204       2.4800000
   2 STRETCH   2  1                     4.6865204       2.4800000
   3 BEND      2  1  4                  1.7278760      99.0000000
   4 STRETCH   3  1                     4.6865204       2.4800000
   5 BEND      3  1  4                  1.7278760      99.0000000
   6 BEND      3  1  2                  1.7278760      99.0000000

     ------------------------------------------
     THE POINT GROUP IS CNV, NAXIS= 3, ORDER= 6
     ------------------------------------------

 -- VARIATIONAL SPACE WILL BE RESTRICTED TO PURE SPHERICAL HARMONICS ONLY --
 AFTER EXCLUDING CONTAMINANT COMBINATIONS FROM THE CARTESIAN GAUSSIAN BASIS
 SET, THE NUMBER OF SPHERICAL HARMONICS KEPT IN THE VARIATION SPACE IS   61

     DIMENSIONS OF THE SYMMETRY SUBSPACES ARE
 A1  =   17     A2  =    4     E   =   20

 ..... DONE SETTING UP THE RUN .....
 STEP CPU TIME =     0.03 TOTAL CPU TIME =        0.0 (    0.0 MIN)
 TOTAL WALL CLOCK TIME=        0.2 SECONDS, CPU UTILIZATION IS  18.75%


          -----------------------------
          STATIONARY POINT LOCATION RUN
          -----------------------------

 OBTAINING INITIAL HESSIAN, HESS=GUESS   
 DIAGONAL GUESS HESSIAN IN INTERNAL COORDS IS
     1  0.3817     2  0.3817     3  0.3337     4  0.3817     5  0.3337
     6  0.3337

          PARAMETERS CONTROLLING GEOMETRY SEARCH ARE
          METHOD =QA                  UPHESS =BFGS    
          NNEG   =         0          NFRZ   =         0
          NSTEP  =        50          IFOLOW =         1
          HESS   =GUESS               RESTAR =         F
          IHREP  =         0          HSSEND =         F
          NPRT   =         0          NPUN   =         0
          OPTTOL = 1.000E-05          RMIN   = 1.500E-03
          RMAX   = 1.000E-01          RLIM   = 7.000E-02
          DXMAX  = 3.000E-01          PURIFY =         F
          MOVIE  =         F          TRUPD  =         T
          TRMAX  = 5.000E-01          TRMIN  = 5.000E-02
          ITBMAT =         5          STPT   =         F
          STSTEP = 1.000E-02          PROJCT=          T

 BEGINNING GEOMETRY SEARCH POINT NSERCH=   0 ...

 COORDINATES OF SYMMETRY UNIQUE ATOMS (ANGS)
   ATOM   CHARGE       X              Y              Z
 ------------------------------------------------------------
 BI         83.0   0.0000000000   0.0000000000   0.3966798967
 CL         17.0  -2.1775421211   0.0000000000  -0.7902111306
 COORDINATES OF ALL ATOMS ARE (ANGS)
   ATOM   CHARGE       X              Y              Z
 ------------------------------------------------------------
 BI         83.0   0.0000000000   0.0000000000   0.3966798967
 CL         17.0   1.0887710606  -1.8858067947  -0.7902111306
 CL         17.0   1.0887710606   1.8858067947  -0.7902111306
 CL         17.0  -2.1775421211   0.0000000000  -0.7902111306


                     --------------------
                     INTERNAL COORDINATES
                     --------------------

                 - - ATOMS - -         COORDINATE      COORDINATE
 NO.   TYPE    I  J  K  L  M  N        (BOHR,RAD)       (ANG,DEG)
 ----------------------------------------------------------------
   1 STRETCH   4  1                     4.6865204       2.4800000
   2 STRETCH   2  1                     4.6865204       2.4800000
   3 BEND      2  1  4                  1.7278760      99.0000000
   4 STRETCH   3  1                     4.6865204       2.4800000
   5 BEND      3  1  4                  1.7278760      99.0000000
   6 BEND      3  1  2                  1.7278760      99.0000000

 THE CURRENT FULLY SUBSTITUTED Z-MATRIX IS
 BI  
 CL     1   2.4800000
 CL     1   2.4800000  2    99.0000000
 CL     1   2.4800000  2    99.0000000  3    99.0000000  1

          ********************
          1 ELECTRON INTEGRALS
          ********************
 TIME TO DO ORDINARY INTEGRALS=      0.01
 TIME TO DO      MCP INTEGRALS=      0.01
 ...... END OF ONE-ELECTRON INTEGRALS ......
 STEP CPU TIME =     0.02 TOTAL CPU TIME =        0.1 (    0.0 MIN)
 TOTAL WALL CLOCK TIME=        0.2 SECONDS, CPU UTILIZATION IS  25.00%

          -------------
          GUESS OPTIONS
          -------------
          GUESS =HUCKEL            NORB  =       0          NORDER=       0
          MIX   =       F          PRTMO =       F          PUNMO =       F
          TOLZ  = 1.0E-08          TOLE  = 1.0E-05
          SYMDEN=       F          PURIFY=       F

 INITIAL GUESS ORBITALS GENERATED BY HUCKEL   ROUTINE.
 HUCKEL GUESS REQUIRES     49801 WORDS.

 STATISTICS FOR GENERATION OF SYMMETRY ORBITAL -Q- MATRIX
 NUMBER OF CARTESIAN ATOMIC ORBITALS=         66
 NUMBER OF SPHERICAL CONTAMINANTS DROPPED=     5
 NUMBER OF LINEARLY DEPENDENT MOS DROPPED=     0
 TOTAL NUMBER OF MOS IN VARIATION SPACE=      61

 SYMMETRIES FOR INITIAL GUESS ORBITALS FOLLOW.   BOTH SET(S).
    18 ORBITALS ARE OCCUPIED (    5 CORE ORBITALS).
     6=?A1      7=?E       8=?E       9=?A1     10=?E      11=?E      12=?A1 
    13=?E      14=?E      15=?A2     16=?E      17=?E      18=?A1     19=?E  
    20=?E      21=?A1     22=?A1     23=A1      24=?A1     25=A1      26=A1  
    27=A1      28=A1  
 ...... END OF INITIAL ORBITAL SELECTION ......
 STEP CPU TIME =     0.04 TOTAL CPU TIME =        0.1 (    0.0 MIN)
 TOTAL WALL CLOCK TIME=        0.2 SECONDS, CPU UTILIZATION IS  36.00%

                    ----------------------
                    AO INTEGRAL TECHNOLOGY
                    ----------------------
     S,P,L SHELL ROTATED AXIS INTEGRALS, REPROGRAMMED BY
        KAZUYA ISHIMURA (IMS) AND JOSE SIERRA (SYNSTAR).
     S,P,D,L SHELL ROTATED AXIS INTEGRALS PROGRAMMED BY
        KAZUYA ISHIMURA (INSTITUTE FOR MOLECULAR SCIENCE).
     S,P,D,F,G SHELL TO TOTAL QUARTET ANGULAR MOMENTUM SUM 5,
        ERIC PROGRAM BY GRAHAM FLETCHER (ELORET AND NASA ADVANCED
        SUPERCOMPUTING DIVISION, AMES RESEARCH CENTER).
     S,P,D,F,G,L SHELL GENERAL RYS QUADRATURE PROGRAMMED BY
        MICHEL DUPUIS (PACIFIC NORTHWEST NATIONAL LABORATORY).

          --------------------
          2 ELECTRON INTEGRALS
          --------------------

 THE -PK- OPTION IS OFF, THE INTEGRALS ARE NOT IN SUPERMATRIX FORM.
 STORING   15000 INTEGRALS/RECORD ON DISK, USING 12 BYTES/INTEGRAL.
 TWO ELECTRON INTEGRAL EVALUATION REQUIRES   90672 WORDS OF MEMORY.
 II,JST,KST,LST =  1  1  1  1 NREC =         1 INTLOC =    1
 II,JST,KST,LST =  2  1  1  1 NREC =         1 INTLOC =    2
 II,JST,KST,LST =  3  1  1  1 NREC =         1 INTLOC =    7
 II,JST,KST,LST =  4  1  1  1 NREC =         1 INTLOC =   22
 II,JST,KST,LST =  5  1  1  1 NREC =         1 INTLOC =   67
 II,JST,KST,LST =  6  1  1  1 NREC =         1 INTLOC =  214
 II,JST,KST,LST =  7  1  1  1 NREC =         1 INTLOC =  571
 II,JST,KST,LST =  8  1  1  1 NREC =         1 INTLOC = 2257
 II,JST,KST,LST =  9  1  1  1 NREC =         1 INTLOC = 6628
 II,JST,KST,LST = 10  1  1  1 NREC =         1 INTLOC = 6628
 II,JST,KST,LST = 11  1  1  1 NREC =         1 INTLOC = 6628
 II,JST,KST,LST = 12  1  1  1 NREC =         1 INTLOC = 6628
 II,JST,KST,LST = 13  1  1  1 NREC =         1 INTLOC = 6628
 II,JST,KST,LST = 14  1  1  1 NREC =         1 INTLOC = 6628
 II,JST,KST,LST = 15  1  1  1 NREC =         1 INTLOC = 6628
 II,JST,KST,LST = 16  1  1  1 NREC =         1 INTLOC = 6628
 II,JST,KST,LST = 17  1  1  1 NREC =         1 INTLOC = 6628
 II,JST,KST,LST = 18  1  1  1 NREC =         1 INTLOC = 6628
 II,JST,KST,LST = 19  1  1  1 NREC =         1 INTLOC = 6628
 II,JST,KST,LST = 20  1  1  1 NREC =         1 INTLOC =11632
 II,JST,KST,LST = 21  1  1  1 NREC =         2 INTLOC = 3468
 II,JST,KST,LST = 22  1  1  1 NREC =         4 INTLOC = 8102
 II,JST,KST,LST = 23  1  1  1 NREC =         8 INTLOC =13351
 TOTAL NUMBER OF NONZERO TWO-ELECTRON INTEGRALS =              397628
         27 INTEGRAL RECORDS WERE STORED ON DISK FILE  8.
  ...... END OF TWO-ELECTRON INTEGRALS .....
 STEP CPU TIME =     0.12 TOTAL CPU TIME =        0.2 (    0.0 MIN)
 TOTAL WALL CLOCK TIME=        0.4 SECONDS, CPU UTILIZATION IS  48.84%

          --------------------------
                 RHF SCF CALCULATION
          --------------------------

     NUCLEAR ENERGY =        87.8389199244
     MAXIT =   30     NPUNCH=    2
     EXTRAP=T  DAMP=F  SHIFT=F  RSTRCT=F  DIIS=T  DEM=F  SOSCF=F
     DENSITY MATRIX CONV=  1.00E-05
     MEMORY REQUIRED FOR RHF ITERS=     62081 WORDS.

 ITER EX DEM     TOTAL ENERGY        E CHANGE  DENSITY CHANGE    DIIS ERROR
   1  0  0     -111.9413441518  -111.9413441518   0.963996543   3.887349633
          * * *   INITIATING DIIS PROCEDURE   * * *
   2  1  0     -116.3019915118    -4.3606473600   0.211707190   0.184657900
   3  2  0     -116.3872840300    -0.0852925182   0.045112119   0.042931404
   4  3  0     -116.3959495323    -0.0086655023   0.022307703   0.008448523
   5  4  0     -116.3965834458    -0.0006339135   0.004724832   0.001725690
   6  5  0     -116.3966143659    -0.0000309201   0.001746455   0.000628905
   7  6  0     -116.3966186293    -0.0000042634   0.000628067   0.000132360
   8  7  0     -116.3966189905    -0.0000003612   0.000150886   0.000039786
   9  8  0     -116.3966190289    -0.0000000384   0.000025768   0.000013215
  10  9  0     -116.3966190313    -0.0000000024   0.000005419   0.000002626
  11 10  0     -116.3966190315    -0.0000000001   0.000001347   0.000000905

          -----------------
          DENSITY CONVERGED
          -----------------
     TIME TO FORM FOCK OPERATORS=       0.1 SECONDS (       0.0 SEC/ITER)
     TIME TO SOLVE SCF EQUATIONS=       0.0 SECONDS (       0.0 SEC/ITER)

 FINAL RHF ENERGY IS     -116.3966190315 AFTER  11 ITERATIONS

          ------------
          EIGENVECTORS
          ------------

                      1          2          3          4          5
                   -1.4526    -1.4526    -1.4455    -1.4455    -1.4433
                     E          E          E          E          A1  
    1  BI 1  S    0.000000   0.000000   0.000000   0.000000  -0.006847
    2  BI 1  S    0.000000   0.000000   0.000000   0.000000  -0.008112
    3  BI 1  S    0.000000   0.000000   0.000000   0.000000  -0.000296
    4  BI 1  X   -0.001262   0.000000   0.000560   0.000000   0.000000
    5  BI 1  Y    0.000000   0.001262   0.000000   0.000560   0.000000
    6  BI 1  Z    0.000000   0.000000   0.000000   0.000000   0.001592
    7  BI 1  X   -0.001588   0.000000  -0.002584   0.000000   0.000000
    8  BI 1  Y    0.000000   0.001588   0.000000  -0.002584   0.000000
    9  BI 1  Z    0.000000   0.000000   0.000000   0.000000  -0.004360
   10  BI 1  X   -0.000956   0.000000   0.001683   0.000000   0.000000
   11  BI 1  Y    0.000000   0.000956   0.000000   0.001683   0.000000
   12  BI 1  Z    0.000000   0.000000   0.000000   0.000000   0.003938
   13  BI 1 XX    0.722629   0.000000  -0.473956   0.000000  -0.500638
   14  BI 1 YY   -0.722629   0.000000   0.473956   0.000000  -0.500638
   15  BI 1 ZZ    0.000000   0.000000   0.000000   0.000000   1.001277
   16  BI 1 XY    0.000000   0.834420   0.000000   0.547278   0.000000
   17  BI 1 XZ    0.538671   0.000000   0.838254   0.000000   0.000000
   18  BI 1 YZ    0.000000  -0.538671   0.000000   0.838254   0.000000
   19  BI 1 XX   -0.001996   0.000000   0.003800   0.000000   0.002689
   20  BI 1 YY    0.001996   0.000000  -0.003800   0.000000   0.002689
   21  BI 1 ZZ    0.000000   0.000000   0.000000   0.000000  -0.005378
   22  BI 1 XY    0.000000  -0.002305   0.000000  -0.004388   0.000000
   23  BI 1 XZ    0.000731   0.000000  -0.003386   0.000000   0.000000
   24  BI 1 YZ    0.000000  -0.000731   0.000000  -0.003386   0.000000
   25  CL 2  S   -0.020002  -0.034645  -0.005561   0.009632  -0.006758
   26  CL 2  S   -0.008493  -0.014710  -0.002460   0.004261  -0.002801
   27  CL 2  X    0.005501   0.006012  -0.001845  -0.004663   0.000374
   28  CL 2  Y   -0.006012  -0.012443  -0.004663   0.003540  -0.000648
   29  CL 2  Z   -0.004631  -0.008021   0.000172  -0.000297  -0.004479
   30  CL 2  X    0.002999   0.002026  -0.001735  -0.002595  -0.000027
   31  CL 2  Y   -0.002026  -0.005339  -0.002595   0.001261   0.000046
   32  CL 2  Z   -0.001869  -0.003237   0.000551  -0.000954  -0.003294
   33  CL 2 XX    0.000041   0.001534   0.001315   0.001049   0.000426
   34  CL 2 YY   -0.000427  -0.002204  -0.002219   0.000516   0.000644
   35  CL 2 ZZ    0.000387   0.000670   0.000904  -0.001565  -0.001070
   36  CL 2 XY    0.002158   0.002762  -0.000307  -0.001685  -0.000218
   37  CL 2 XZ    0.001746   0.001474  -0.000680  -0.000505   0.001091
   38  CL 2 YZ   -0.001474  -0.003448  -0.000505  -0.000097  -0.001890
   39  CL 3  S   -0.020002   0.034645  -0.005561  -0.009632  -0.006758
   40  CL 3  S   -0.008493   0.014710  -0.002460  -0.004261  -0.002801
   41  CL 3  X    0.005501  -0.006012  -0.001845   0.004663   0.000374
   42  CL 3  Y    0.006012  -0.012443   0.004663   0.003540   0.000648
   43  CL 3  Z   -0.004631   0.008021   0.000172   0.000297  -0.004479
   44  CL 3  X    0.002999  -0.002026  -0.001735   0.002595  -0.000027
   45  CL 3  Y    0.002026  -0.005339   0.002595   0.001261  -0.000046
   46  CL 3  Z   -0.001869   0.003237   0.000551   0.000954  -0.003294
   47  CL 3 XX    0.000041  -0.001534   0.001315  -0.001049   0.000426
   48  CL 3 YY   -0.000427   0.002204  -0.002219  -0.000516   0.000644
   49  CL 3 ZZ    0.000387  -0.000670   0.000904   0.001565  -0.001070
   50  CL 3 XY   -0.002158   0.002762   0.000307  -0.001685   0.000218
   51  CL 3 XZ    0.001746  -0.001474  -0.000680   0.000505   0.001091
   52  CL 3 YZ    0.001474  -0.003448   0.000505  -0.000097   0.001890
   53  CL 4  S    0.040005   0.000000   0.011122   0.000000  -0.006758
   54  CL 4  S    0.016985   0.000000   0.004920   0.000000  -0.002801
   55  CL 4  X    0.015914   0.000000   0.006232   0.000000  -0.000749
   56  CL 4  Y    0.000000  -0.002030   0.000000  -0.004537   0.000000
   57  CL 4  Z    0.009262   0.000000  -0.000343   0.000000  -0.004479
   58  CL 4  X    0.006508   0.000000   0.002760   0.000000   0.000053
   59  CL 4  Y    0.000000  -0.001830   0.000000  -0.003234   0.000000
   60  CL 4  Z    0.003737   0.000000  -0.001102   0.000000  -0.003294
   61  CL 4 XX    0.003858   0.000000   0.002210   0.000000   0.000753
   62  CL 4 YY   -0.003084   0.000000  -0.000402   0.000000   0.000317
   63  CL 4 ZZ   -0.000774   0.000000  -0.001807   0.000000  -0.001070
   64  CL 4 XY    0.000000  -0.000976   0.000000  -0.002218   0.000000
   65  CL 4 XZ    0.004299   0.000000   0.000194   0.000000  -0.002182
   66  CL 4 YZ    0.000000  -0.000895   0.000000  -0.000972   0.000000

                      6          7          8          9         10
                   -1.1184    -1.0879    -1.0879    -0.7916    -0.5235
                     A1         E          E          A1         E   
    1  BI 1  S    0.216734   0.000000   0.000000   0.685742   0.000000
    2  BI 1  S    0.162398   0.000000   0.000000   0.506507   0.000000
    3  BI 1  S    0.159447   0.000000   0.000000   0.613043   0.000000
    4  BI 1  X    0.000000  -0.046098   0.000000   0.000000  -0.177085
    5  BI 1  Y    0.000000   0.000000   0.046098   0.000000   0.000000
    6  BI 1  Z   -0.032963   0.000000   0.000000   0.006838   0.000000
    7  BI 1  X    0.000000  -0.056562   0.000000   0.000000  -0.251281
    8  BI 1  Y    0.000000   0.000000   0.056562   0.000000   0.000000
    9  BI 1  Z   -0.041808   0.000000   0.000000   0.015412   0.000000
   10  BI 1  X    0.000000  -0.033783   0.000000   0.000000  -0.148315
   11  BI 1  Y    0.000000   0.000000   0.033783   0.000000   0.000000
   12  BI 1  Z   -0.013366   0.000000   0.000000   0.016745   0.000000
   13  BI 1 XX   -0.014866  -0.072854   0.000000  -0.001859  -0.037842
   14  BI 1 YY   -0.014866   0.072854   0.000000  -0.001859   0.037842
   15  BI 1 ZZ    0.029733   0.000000   0.000000   0.003718   0.000000
   16  BI 1 XY    0.000000   0.000000  -0.084124   0.000000   0.000000
   17  BI 1 XZ    0.000000  -0.094541   0.000000   0.000000  -0.076527
   18  BI 1 YZ    0.000000   0.000000   0.094541   0.000000   0.000000
   19  BI 1 XX    0.001926   0.019453   0.000000  -0.001391   0.024525
   20  BI 1 YY    0.001926  -0.019453   0.000000  -0.001391  -0.024525
   21  BI 1 ZZ   -0.003852   0.000000   0.000000   0.002781   0.000000
   22  BI 1 XY    0.000000   0.000000   0.022463   0.000000   0.000000
   23  BI 1 XZ    0.000000   0.026667   0.000000   0.000000   0.054567
   24  BI 1 YZ    0.000000   0.000000  -0.026667   0.000000   0.000000
   25  CL 2  S    0.362983  -0.275217  -0.476689  -0.157190   0.042703
   26  CL 2  S    0.188307  -0.141666  -0.245372  -0.116328   0.043671
   27  CL 2  X   -0.013201   0.001062   0.007971  -0.053283  -0.076701
   28  CL 2  Y    0.022865  -0.007971  -0.010266   0.092288  -0.205832
   29  CL 2  Z    0.012820  -0.005610  -0.009717   0.056970  -0.118886
   30  CL 2  X   -0.007969   0.003509   0.002664  -0.030660  -0.060420
   31  CL 2  Y    0.013803  -0.002664  -0.006586   0.053104  -0.159144
   32  CL 2  Z    0.010635  -0.003039  -0.005263   0.032500  -0.091713
   33  CL 2 XX   -0.002612   0.001002   0.001904  -0.004534   0.013399
   34  CL 2 YY    0.004653  -0.001644  -0.003016   0.007973  -0.013939
   35  CL 2 ZZ   -0.002042   0.000642   0.001112  -0.003439   0.000540
   36  CL 2 XY   -0.007265   0.002841   0.004808  -0.012507   0.003248
   37  CL 2 XZ   -0.004481   0.001560   0.003353  -0.007835   0.000985
   38  CL 2 YZ    0.007760  -0.003353  -0.005431   0.013571  -0.016677
   39  CL 3  S    0.362983  -0.275217   0.476689  -0.157190   0.042703
   40  CL 3  S    0.188307  -0.141666   0.245372  -0.116328   0.043671
   41  CL 3  X   -0.013201   0.001062  -0.007971  -0.053283  -0.076701
   42  CL 3  Y   -0.022865   0.007971  -0.010266  -0.092288   0.205832
   43  CL 3  Z    0.012820  -0.005610   0.009717   0.056970  -0.118886
   44  CL 3  X   -0.007969   0.003509  -0.002664  -0.030660  -0.060420
   45  CL 3  Y   -0.013803   0.002664  -0.006586  -0.053104   0.159144
   46  CL 3  Z    0.010635  -0.003039   0.005263   0.032500  -0.091713
   47  CL 3 XX   -0.002612   0.001002  -0.001904  -0.004534   0.013399
   48  CL 3 YY    0.004653  -0.001644   0.003016   0.007973  -0.013939
   49  CL 3 ZZ   -0.002042   0.000642  -0.001112  -0.003439   0.000540
   50  CL 3 XY    0.007265  -0.002841   0.004808   0.012507  -0.003248
   51  CL 3 XZ   -0.004481   0.001560  -0.003353  -0.007835   0.000985
   52  CL 3 YZ   -0.007760   0.003353  -0.005431  -0.013571   0.016677
   53  CL 4  S    0.362983   0.550433   0.000000  -0.157190  -0.085407
   54  CL 4  S    0.188307   0.283332   0.000000  -0.116328  -0.087342
   55  CL 4  X    0.026403   0.014869   0.000000   0.106565   0.279810
   56  CL 4  Y    0.000000   0.000000   0.003540   0.000000   0.000000
   57  CL 4  Z    0.012820   0.011220   0.000000   0.056970   0.237772
   58  CL 4  X    0.015938   0.008124   0.000000   0.061319   0.215226
   59  CL 4  Y    0.000000   0.000000  -0.001971   0.000000   0.000000
   60  CL 4  Z    0.010635   0.006078   0.000000   0.032500   0.183427
   61  CL 4 XX    0.008286   0.006226   0.000000   0.014226   0.019081
   62  CL 4 YY   -0.006244  -0.004942   0.000000  -0.010787  -0.018001
   63  CL 4 ZZ   -0.002042  -0.001284   0.000000  -0.003439  -0.001080
   64  CL 4 XY    0.000000   0.000000  -0.000113   0.000000   0.000000
   65  CL 4 XZ    0.008961   0.007367   0.000000   0.015670   0.029870
   66  CL 4 YZ    0.000000   0.000000   0.000376   0.000000   0.000000

                     11         12         13         14         15
                   -0.5235    -0.5004    -0.4720    -0.4720    -0.4534
                     E          A1         E          E          A2  
    1  BI 1  S    0.000000  -0.116174   0.000000   0.000000   0.000000
    2  BI 1  S    0.000000  -0.069350   0.000000   0.000000   0.000000
    3  BI 1  S    0.000000  -0.169765   0.000000   0.000000   0.000000
    4  BI 1  X    0.000000   0.000000  -0.026406   0.000000   0.000000
    5  BI 1  Y    0.177085   0.000000   0.000000  -0.026406   0.000000
    6  BI 1  Z    0.000000  -0.141442   0.000000   0.000000   0.000000
    7  BI 1  X    0.000000   0.000000  -0.040961   0.000000   0.000000
    8  BI 1  Y    0.251281   0.000000   0.000000  -0.040961   0.000000
    9  BI 1  Z    0.000000  -0.200052   0.000000   0.000000   0.000000
   10  BI 1  X    0.000000   0.000000  -0.004898   0.000000   0.000000
   11  BI 1  Y    0.148315   0.000000   0.000000  -0.004898   0.000000
   12  BI 1  Z    0.000000  -0.156316   0.000000   0.000000   0.000000
   13  BI 1 XX    0.000000   0.023011  -0.068167   0.000000   0.000000
   14  BI 1 YY    0.000000   0.023011   0.068167   0.000000   0.000000
   15  BI 1 ZZ    0.000000  -0.046022   0.000000   0.000000   0.000000
   16  BI 1 XY   -0.043696   0.000000   0.000000   0.078713   0.000000
   17  BI 1 XZ    0.000000   0.000000   0.020590   0.000000   0.000000
   18  BI 1 YZ    0.076527   0.000000   0.000000   0.020590   0.000000
   19  BI 1 XX    0.000000  -0.017424   0.050662   0.000000   0.000000
   20  BI 1 YY    0.000000  -0.017424  -0.050662   0.000000   0.000000
   21  BI 1 ZZ    0.000000   0.034848   0.000000   0.000000   0.000000
   22  BI 1 XY    0.028319   0.000000   0.000000  -0.058499   0.000000
   23  BI 1 XZ    0.000000   0.000000  -0.020118   0.000000   0.000000
   24  BI 1 YZ   -0.054567   0.000000   0.000000  -0.020118   0.000000
   25  CL 2  S    0.073965  -0.017994   0.006983  -0.012096   0.000000
   26  CL 2  S    0.075641  -0.019972   0.004010  -0.006946   0.000000
   27  CL 2  X    0.205832  -0.111052   0.248913   0.170847  -0.303596
   28  CL 2  Y   -0.160973   0.192348   0.170847   0.051636  -0.175281
   29  CL 2  Z   -0.205917  -0.204004  -0.162953   0.282242   0.000000
   30  CL 2  X    0.159144  -0.090586   0.213463   0.147253  -0.263492
   31  CL 2  Y   -0.123344   0.156899   0.147253   0.043429  -0.152127
   32  CL 2  Z   -0.158852  -0.165755  -0.139376   0.241406   0.000000
   33  CL 2 XX    0.002345   0.001685  -0.006939  -0.011084   0.009666
   34  CL 2 YY   -0.003280   0.014621   0.012750   0.001019  -0.009666
   35  CL 2 ZZ    0.000935  -0.016306  -0.005811   0.010065   0.000000
   36  CL 2 XY    0.019534  -0.012936   0.006988   0.003298  -0.006444
   37  CL 2 XZ    0.016677   0.001282   0.010011  -0.002867  -0.009305
   38  CL 2 YZ   -0.020242  -0.002221  -0.002867   0.013322  -0.005372
   39  CL 3  S   -0.073965  -0.017994   0.006983   0.012096   0.000000
   40  CL 3  S   -0.075641  -0.019972   0.004010   0.006946   0.000000
   41  CL 3  X   -0.205832  -0.111052   0.248913  -0.170847   0.303596
   42  CL 3  Y   -0.160973  -0.192348  -0.170847   0.051636  -0.175281
   43  CL 3  Z    0.205917  -0.204004  -0.162953  -0.282242   0.000000
   44  CL 3  X   -0.159144  -0.090586   0.213463  -0.147253   0.263492
   45  CL 3  Y   -0.123344  -0.156899  -0.147253   0.043429  -0.152127
   46  CL 3  Z    0.158852  -0.165755  -0.139376  -0.241406   0.000000
   47  CL 3 XX   -0.002345   0.001685  -0.006939   0.011084  -0.009666
   48  CL 3 YY    0.003280   0.014621   0.012750  -0.001019   0.009666
   49  CL 3 ZZ   -0.000935  -0.016306  -0.005811  -0.010065   0.000000
   50  CL 3 XY    0.019534   0.012936  -0.006988   0.003298  -0.006444
   51  CL 3 XZ   -0.016677   0.001282   0.010011   0.002867   0.009305
   52  CL 3 YZ   -0.020242   0.002221   0.002867   0.013322  -0.005372
   53  CL 4  S    0.000000  -0.017994  -0.013967   0.000000   0.000000
   54  CL 4  S    0.000000  -0.019972  -0.008021   0.000000   0.000000
   55  CL 4  X    0.000000   0.222104  -0.047002   0.000000   0.000000
   56  CL 4  Y    0.195538   0.000000   0.000000   0.347552   0.350563
   57  CL 4  Z    0.000000  -0.204004   0.325905   0.000000   0.000000
   58  CL 4  X    0.000000   0.181171  -0.041587   0.000000   0.000000
   59  CL 4  Y    0.152302   0.000000   0.000000   0.298480   0.304254
   60  CL 4  Z    0.000000  -0.165755   0.278752   0.000000   0.000000
   61  CL 4 XX    0.000000   0.021089  -0.005173   0.000000   0.000000
   62  CL 4 YY    0.000000  -0.004784  -0.006449   0.000000   0.000000
   63  CL 4 ZZ    0.000000  -0.016306   0.011622   0.000000   0.000000
   64  CL 4 XY    0.013908   0.000000   0.000000   0.015402   0.012888
   65  CL 4 XZ    0.000000  -0.002565   0.014977   0.000000   0.000000
   66  CL 4 YZ    0.008643   0.000000   0.000000   0.008355   0.010744

                     16         17         18         19         20
                   -0.4529    -0.4529    -0.4162     0.0133     0.0187
                     E          E          A1         A1         E   
    1  BI 1  S    0.000000   0.000000   0.292171  -0.314425   0.000000
    2  BI 1  S    0.000000   0.000000   0.156354  -0.152802   0.000000
    3  BI 1  S    0.000000   0.000000   0.478163  -0.599296   0.000000
    4  BI 1  X   -0.039711   0.000000   0.000000   0.000000   0.280086
    5  BI 1  Y    0.000000  -0.039711   0.000000   0.000000   0.000000
    6  BI 1  Z    0.000000   0.000000   0.176243   0.257203   0.000000
    7  BI 1  X   -0.072047   0.000000   0.000000   0.000000   0.324708
    8  BI 1  Y    0.000000  -0.072047   0.000000   0.000000   0.000000
    9  BI 1  Z    0.000000   0.000000   0.266962   0.302589   0.000000
   10  BI 1  X    0.023455   0.000000   0.000000   0.000000   0.965042
   11  BI 1  Y    0.000000   0.023455   0.000000   0.000000   0.000000
   12  BI 1  Z    0.000000   0.000000   0.158389   0.878805   0.000000
   13  BI 1 XX   -0.040786   0.000000   0.028328  -0.002160  -0.062423
   14  BI 1 YY    0.040786   0.000000   0.028328  -0.002160   0.062423
   15  BI 1 ZZ    0.000000   0.000000  -0.056656   0.004321   0.000000
   16  BI 1 XY    0.000000   0.047096   0.000000   0.000000   0.000000
   17  BI 1 XZ   -0.052173   0.000000   0.000000   0.000000  -0.101205
   18  BI 1 YZ    0.000000  -0.052173   0.000000   0.000000   0.000000
   19  BI 1 XX    0.025457   0.000000  -0.022327  -0.005749   0.040866
   20  BI 1 YY   -0.025457   0.000000  -0.022327  -0.005749  -0.040866
   21  BI 1 ZZ    0.000000   0.000000   0.044654   0.011498   0.000000
   22  BI 1 XY    0.000000  -0.029395   0.000000   0.000000   0.000000
   23  BI 1 XZ    0.032201   0.000000   0.000000   0.000000   0.078549
   24  BI 1 YZ    0.000000   0.032201   0.000000   0.000000   0.000000
   25  CL 2  S    0.006225  -0.010782   0.005668   0.085966  -0.056607
   26  CL 2  S    0.002000  -0.003464  -0.012584   0.211455  -0.143451
   27  CL 2  X    0.280307  -0.039247   0.065075  -0.101366  -0.040949
   28  CL 2  Y   -0.039247   0.325626  -0.112714   0.175572  -0.114341
   29  CL 2  Z    0.115770  -0.200520  -0.267797   0.019165  -0.079152
   30  CL 2  X    0.241436  -0.036081   0.062566  -0.175595  -0.055118
   31  CL 2  Y   -0.036081   0.283099  -0.108367   0.304139  -0.197378
   32  CL 2  Z    0.099479  -0.172303  -0.250256   0.037528  -0.125833
   33  CL 2 XX   -0.004702  -0.003901   0.004136   0.000740  -0.020563
   34  CL 2 YY   -0.003214   0.017613  -0.006198  -0.021787   0.015258
   35  CL 2 ZZ    0.007916  -0.013712   0.002063   0.021047   0.005305
   36  CL 2 XY    0.012421  -0.013484   0.010334   0.022527   0.008691
   37  CL 2 XZ    0.007076   0.000071   0.007049   0.001738   0.009406
   38  CL 2 YZ    0.000071   0.006993  -0.012210  -0.003010   0.019599
   39  CL 3  S    0.006225   0.010782   0.005668   0.085966  -0.056607
   40  CL 3  S    0.002000   0.003464  -0.012584   0.211455  -0.143451
   41  CL 3  X    0.280307   0.039247   0.065075  -0.101366  -0.040949
   42  CL 3  Y    0.039247   0.325626   0.112714  -0.175572   0.114341
   43  CL 3  Z    0.115770   0.200520  -0.267797   0.019165  -0.079152
   44  CL 3  X    0.241436   0.036081   0.062566  -0.175595  -0.055118
   45  CL 3  Y    0.036081   0.283099   0.108367  -0.304139   0.197378
   46  CL 3  Z    0.099479   0.172303  -0.250256   0.037528  -0.125833
   47  CL 3 XX   -0.004702   0.003901   0.004136   0.000740  -0.020563
   48  CL 3 YY   -0.003214  -0.017613  -0.006198  -0.021787   0.015258
   49  CL 3 ZZ    0.007916   0.013712   0.002063   0.021047   0.005305
   50  CL 3 XY   -0.012421  -0.013484  -0.010334  -0.022527  -0.008691
   51  CL 3 XZ    0.007076  -0.000071   0.007049   0.001738   0.009406
   52  CL 3 YZ   -0.000071   0.006993   0.012210   0.003010  -0.019599
   53  CL 4  S   -0.012450   0.000000   0.005668   0.085966   0.113215
   54  CL 4  S   -0.004000   0.000000  -0.012584   0.211455   0.286903
   55  CL 4  X    0.348285   0.000000  -0.130151   0.202733   0.157095
   56  CL 4  Y    0.000000   0.257647   0.000000   0.000000   0.000000
   57  CL 4  Z   -0.231540   0.000000  -0.267797   0.019165   0.158305
   58  CL 4  X    0.303930   0.000000  -0.125131   0.351190   0.286751
   59  CL 4  Y    0.000000   0.220605   0.000000   0.000000   0.000000
   60  CL 4  Z   -0.198958   0.000000  -0.250256   0.037528   0.251665
   61  CL 4 XX    0.025804   0.000000  -0.011365  -0.033050   0.000431
   62  CL 4 YY   -0.009971   0.000000   0.009303   0.012003   0.010179
   63  CL 4 ZZ   -0.015833   0.000000   0.002063   0.021047  -0.010610
   64  CL 4 XY    0.000000   0.008031   0.000000   0.000000   0.000000
   65  CL 4 XZ    0.006952   0.000000  -0.014099  -0.003476  -0.024541
   66  CL 4 YZ    0.000000   0.007117   0.000000   0.000000   0.000000

                     21         22         23         24         25
                    0.0187     0.3630     0.3630     0.3686     0.4149
                     E          E          E          A1         E   
    1  BI 1  S    0.000000   0.000000   0.000000  -0.110501   0.000000
    2  BI 1  S    0.000000   0.000000   0.000000  -0.053234   0.000000
    3  BI 1  S    0.000000   0.000000   0.000000  -0.241646   0.000000
    4  BI 1  X    0.000000  -0.426850   0.000000   0.000000  -0.133185
    5  BI 1  Y    0.280086   0.000000  -0.426850   0.000000   0.000000
    6  BI 1  Z    0.000000   0.000000   0.000000  -0.395974   0.000000
    7  BI 1  X    0.000000  -1.417511   0.000000   0.000000  -0.440078
    8  BI 1  Y    0.324708   0.000000  -1.417511   0.000000   0.000000
    9  BI 1  Z    0.000000   0.000000   0.000000  -1.332928   0.000000
   10  BI 1  X    0.000000   1.441503   0.000000   0.000000   0.418946
   11  BI 1  Y    0.965042   0.000000   1.441503   0.000000   0.000000
   12  BI 1  Z    0.000000   0.000000   0.000000   1.417828   0.000000
   13  BI 1 XX    0.000000   0.033234   0.000000   0.116452  -0.279535
   14  BI 1 YY    0.000000  -0.033234   0.000000   0.116452   0.279535
   15  BI 1 ZZ    0.000000   0.000000   0.000000  -0.232904   0.000000
   16  BI 1 XY    0.072080   0.000000  -0.038375   0.000000   0.000000
   17  BI 1 XZ    0.000000  -0.155103   0.000000   0.000000   0.223171
   18  BI 1 YZ   -0.101205   0.000000  -0.155103   0.000000   0.000000
   19  BI 1 XX    0.000000  -0.116618   0.000000  -0.273472   0.646060
   20  BI 1 YY    0.000000   0.116618   0.000000  -0.273472  -0.646060
   21  BI 1 ZZ    0.000000   0.000000   0.000000   0.546944   0.000000
   22  BI 1 XY   -0.047188   0.000000   0.134659   0.000000   0.000000
   23  BI 1 XZ    0.000000   0.296601   0.000000   0.000000  -0.534255
   24  BI 1 YZ    0.078549   0.000000   0.296601   0.000000   0.000000
   25  CL 2  S    0.098047   0.000525  -0.000909   0.017863   0.002445
   26  CL 2  S    0.248465  -0.138536   0.239951   0.211344  -0.028692
   27  CL 2  X   -0.114341  -0.040533   0.068386   0.040808  -0.150924
   28  CL 2  Y    0.091080   0.068386  -0.119499  -0.070681  -0.099507
   29  CL 2  Z    0.137096  -0.001321   0.002288  -0.003174   0.056921
   30  CL 2  X   -0.197378  -0.060380  -0.039854  -0.071353  -0.065466
   31  CL 2  Y    0.172795  -0.039854  -0.014361   0.123587  -0.035012
   32  CL 2  Z    0.217948  -0.040207   0.069640   0.010281   0.018769
   33  CL 2 XX   -0.002932   0.055803   0.000865  -0.013982  -0.086804
   34  CL 2 YY    0.012121  -0.090626   0.059450   0.072637   0.151113
   35  CL 2 ZZ   -0.009189   0.034823  -0.060315  -0.058655  -0.064309
   36  CL 2 XY    0.010646   0.033824  -0.123598  -0.086620   0.096036
   37  CL 2 XZ    0.019599   0.023606  -0.063171   0.002272   0.100981
   38  CL 2 YZ   -0.013226  -0.063171   0.096549  -0.003936  -0.009830
   39  CL 3  S   -0.098047   0.000525   0.000909   0.017863   0.002445
   40  CL 3  S   -0.248465  -0.138536  -0.239951   0.211344  -0.028692
   41  CL 3  X    0.114341  -0.040533  -0.068386   0.040808  -0.150924
   42  CL 3  Y    0.091080  -0.068386  -0.119499   0.070681   0.099507
   43  CL 3  Z   -0.137096  -0.001321  -0.002288  -0.003174   0.056921
   44  CL 3  X    0.197378  -0.060380   0.039854  -0.071353  -0.065466
   45  CL 3  Y    0.172795   0.039854  -0.014361  -0.123587   0.035012
   46  CL 3  Z   -0.217948  -0.040207  -0.069640   0.010281   0.018769
   47  CL 3 XX    0.002932   0.055803  -0.000865  -0.013982  -0.086804
   48  CL 3 YY   -0.012121  -0.090626  -0.059450   0.072637   0.151113
   49  CL 3 ZZ    0.009189   0.034823   0.060315  -0.058655  -0.064309
   50  CL 3 XY    0.010646  -0.033824  -0.123598   0.086620  -0.096036
   51  CL 3 XZ   -0.019599   0.023606   0.063171   0.002272   0.100981
   52  CL 3 YZ   -0.013226   0.063171   0.096549   0.003936   0.009830
   53  CL 4  S    0.000000  -0.001050   0.000000   0.017863  -0.004890
   54  CL 4  S    0.000000   0.277071   0.000000   0.211344   0.057384
   55  CL 4  X    0.000000  -0.158982   0.000000  -0.081615   0.021427
   56  CL 4  Y   -0.106964   0.000000  -0.001050   0.000000   0.000000
   57  CL 4  Z    0.000000   0.002642   0.000000  -0.003174  -0.113842
   58  CL 4  X    0.000000   0.008649   0.000000   0.142706  -0.004824
   59  CL 4  Y   -0.169074   0.000000  -0.083389   0.000000   0.000000
   60  CL 4  Z    0.000000   0.080414   0.000000   0.010281  -0.037539
   61  CL 4 XX    0.000000   0.158774   0.000000   0.115947  -0.039213
   62  CL 4 YY    0.000000  -0.089128   0.000000  -0.057292  -0.089404
   63  CL 4 ZZ    0.000000  -0.069646   0.000000  -0.058655   0.128617
   64  CL 4 XY    0.025699   0.000000  -0.065013   0.000000   0.000000
   65  CL 4 XZ    0.000000   0.133021   0.000000  -0.004545   0.118007
   66  CL 4 YZ    0.020722   0.000000  -0.012865   0.000000   0.000000

                     26         27         28         29         30
                    0.4149     0.4269     0.5800     0.5800     0.7157
                     E          A1         E          E          A1  
    1  BI 1  S    0.000000  -0.022204   0.000000   0.000000  -0.014674
    2  BI 1  S    0.000000  -0.082985   0.000000   0.000000   0.111766
    3  BI 1  S    0.000000   0.097908   0.000000   0.000000  -0.466469
    4  BI 1  X    0.000000   0.000000  -0.125552   0.000000   0.000000
    5  BI 1  Y    0.133185   0.000000   0.000000  -0.125552   0.000000
    6  BI 1  Z    0.000000   0.254151   0.000000   0.000000  -0.074968
    7  BI 1  X    0.000000   0.000000  -0.536193   0.000000   0.000000
    8  BI 1  Y    0.440078   0.000000   0.000000  -0.536193   0.000000
    9  BI 1  Z    0.000000   0.845791   0.000000   0.000000  -0.166097
   10  BI 1  X    0.000000   0.000000   1.198354   0.000000   0.000000
   11  BI 1  Y   -0.418946   0.000000   0.000000   1.198354   0.000000
   12  BI 1  Z    0.000000  -0.810930   0.000000   0.000000   0.331672
   13  BI 1 XX    0.000000   0.173562   0.208977   0.000000  -0.021301
   14  BI 1 YY    0.000000   0.173562  -0.208977   0.000000  -0.021301
   15  BI 1 ZZ    0.000000  -0.347123   0.000000   0.000000   0.042603
   16  BI 1 XY   -0.322779   0.000000   0.000000  -0.241306   0.000000
   17  BI 1 XZ    0.000000   0.000000   0.288903   0.000000   0.000000
   18  BI 1 YZ   -0.223171   0.000000   0.000000   0.288903   0.000000
   19  BI 1 XX    0.000000  -0.408541  -0.656063   0.000000   0.053815
   20  BI 1 YY    0.000000  -0.408541   0.656063   0.000000   0.053815
   21  BI 1 ZZ    0.000000   0.817082   0.000000   0.000000  -0.107631
   22  BI 1 XY    0.746006   0.000000   0.000000   0.757556   0.000000
   23  BI 1 XZ    0.000000   0.000000  -0.884864   0.000000   0.000000
   24  BI 1 YZ    0.534255   0.000000   0.000000  -0.884864   0.000000
   25  CL 2  S    0.004235   0.001183  -0.128313   0.222244   0.006628
   26  CL 2  S   -0.049696  -0.062882  -0.233955   0.405222   0.081632
   27  CL 2  X    0.099507   0.022391  -0.116232   0.064771   0.248154
   28  CL 2  Y    0.036023  -0.038782   0.064771  -0.191023  -0.429816
   29  CL 2  Z    0.098590   0.157396   0.053420  -0.092526  -0.113896
   30  CL 2  X    0.035012   0.010594   0.184601  -0.324926  -0.295222
   31  CL 2  Y    0.025038  -0.018349  -0.324926   0.559793   0.511340
   32  CL 2  Z    0.032510   0.075502  -0.209863   0.363494   0.119701
   33  CL 2 XX    0.138863   0.018677  -0.057041   0.013159   0.103781
   34  CL 2 YY   -0.027477   0.041175   0.084311  -0.060391  -0.144200
   35  CL 2 ZZ   -0.111386  -0.059852  -0.027270   0.047232   0.040419
   36  CL 2 XY   -0.026469  -0.022497  -0.042464   0.130643   0.247981
   37  CL 2 XZ    0.009830   0.083370  -0.129068  -0.007345   0.078603
   38  CL 2 YZ   -0.112331  -0.144401  -0.007345  -0.120587  -0.136144
   39  CL 3  S   -0.004235   0.001183  -0.128313  -0.222244   0.006628
   40  CL 3  S    0.049696  -0.062882  -0.233955  -0.405222   0.081632
   41  CL 3  X   -0.099507   0.022391  -0.116232  -0.064771   0.248154
   42  CL 3  Y    0.036023   0.038782  -0.064771  -0.191023   0.429816
   43  CL 3  Z   -0.098590   0.157396   0.053420   0.092526  -0.113896
   44  CL 3  X   -0.035012   0.010594   0.184601   0.324926  -0.295222
   45  CL 3  Y    0.025038   0.018349   0.324926   0.559793  -0.511340
   46  CL 3  Z   -0.032510   0.075502  -0.209863  -0.363494   0.119701
   47  CL 3 XX   -0.138863   0.018677  -0.057041  -0.013159   0.103781
   48  CL 3 YY    0.027477   0.041175   0.084311   0.060391  -0.144200
   49  CL 3 ZZ    0.111386  -0.059852  -0.027270  -0.047232   0.040419
   50  CL 3 XY   -0.026469   0.022497   0.042464   0.130643  -0.247981
   51  CL 3 XZ   -0.009830   0.083370  -0.129068   0.007345   0.078603
   52  CL 3 YZ   -0.112331   0.144401   0.007345  -0.120587   0.136144
   53  CL 4  S    0.000000   0.001183   0.256625   0.000000   0.006628
   54  CL 4  S    0.000000  -0.062882   0.467911   0.000000   0.081632
   55  CL 4  X    0.000000  -0.044782  -0.228418   0.000000  -0.496308
   56  CL 4  Y    0.208374   0.000000   0.000000  -0.078836   0.000000
   57  CL 4  Z    0.000000   0.157396  -0.106840   0.000000  -0.113896
   58  CL 4  X    0.000000  -0.021188   0.747389   0.000000   0.590444
   59  CL 4  Y    0.085680   0.000000   0.000000  -0.002995   0.000000
   60  CL 4  Z    0.000000   0.075502   0.419727   0.000000   0.119701
   61  CL 4 XX    0.000000   0.052423  -0.161641   0.000000  -0.268190
   62  CL 4 YY    0.000000   0.007429   0.107102   0.000000   0.227771
   63  CL 4 ZZ    0.000000  -0.059852   0.054539   0.000000   0.040419
   64  CL 4 XY   -0.192808   0.000000   0.000000   0.057093   0.000000
   65  CL 4 XZ    0.000000  -0.166739  -0.116346   0.000000  -0.157206
   66  CL 4 YZ   -0.095306   0.000000   0.000000  -0.133309   0.000000

                     31         32         33         34         35
                    0.7311     0.7311     0.7420     0.7446     0.7471
                     E          E          A2         A1         E   
    1  BI 1  S    0.000000   0.000000   0.000000   0.045282   0.000000
    2  BI 1  S    0.000000   0.000000   0.000000   0.075376   0.000000
    3  BI 1  S    0.000000   0.000000   0.000000  -0.050743   0.000000
    4  BI 1  X    0.027621   0.000000   0.000000   0.000000   0.028629
    5  BI 1  Y    0.000000   0.027621   0.000000   0.000000   0.000000
    6  BI 1  Z    0.000000   0.000000   0.000000   0.014717   0.000000
    7  BI 1  X    0.068837   0.000000   0.000000   0.000000   0.069823
    8  BI 1  Y    0.000000   0.068837   0.000000   0.000000   0.000000
    9  BI 1  Z    0.000000   0.000000   0.000000   0.083282   0.000000
   10  BI 1  X   -0.218907   0.000000   0.000000   0.000000  -0.105370
   11  BI 1  Y    0.000000  -0.218907   0.000000   0.000000   0.000000
   12  BI 1  Z    0.000000   0.000000   0.000000  -0.209147   0.000000
   13  BI 1 XX    0.025797   0.000000   0.000000  -0.006289  -0.009440
   14  BI 1 YY   -0.025797   0.000000   0.000000  -0.006289   0.009440
   15  BI 1 ZZ    0.000000   0.000000   0.000000   0.012578   0.000000
   16  BI 1 XY    0.000000  -0.029787   0.000000   0.000000   0.000000
   17  BI 1 XZ    0.000125   0.000000   0.000000   0.000000  -0.022774
   18  BI 1 YZ    0.000000   0.000125   0.000000   0.000000   0.000000
   19  BI 1 XX   -0.083659   0.000000   0.000000  -0.008720   0.032676
   20  BI 1 YY    0.083659   0.000000   0.000000  -0.008720  -0.032676
   21  BI 1 ZZ    0.000000   0.000000   0.000000   0.017440   0.000000
   22  BI 1 XY    0.000000   0.096601   0.000000   0.000000   0.000000
   23  BI 1 XZ    0.074915   0.000000   0.000000   0.000000   0.089034
   24  BI 1 YZ    0.000000   0.074915   0.000000   0.000000   0.000000
   25  CL 2  S    0.009345  -0.016185   0.000000   0.002045   0.002042
   26  CL 2  S    0.021627  -0.037458   0.000000  -0.023726   0.022334
   27  CL 2  X   -0.310061  -0.406214  -0.182192  -0.085454  -0.270216
   28  CL 2  Y   -0.406214   0.158994  -0.105188   0.148010  -0.096722
   29  CL 2  Z    0.088058  -0.152520   0.000000  -0.466950  -0.123553
   30  CL 2  X    0.341397   0.451794   0.207189   0.094611   0.293720
   31  CL 2  Y    0.451794  -0.180290   0.119621  -0.163871   0.116276
   32  CL 2  Z   -0.084871   0.147002   0.000000   0.506175   0.144002
   33  CL 2 XX    0.028595  -0.008613   0.367285   0.151179   0.351664
   34  CL 2 YY   -0.087200   0.110120  -0.367285   0.131250  -0.138375
   35  CL 2 ZZ    0.058605  -0.101507   0.000000  -0.282429  -0.213288
   36  CL 2 XY    0.068551  -0.146010  -0.244856   0.019929  -0.301863
   37  CL 2 XZ   -0.345098  -0.172628  -0.196500   0.101240   0.035810
   38  CL 2 YZ   -0.172628  -0.145764  -0.113450  -0.175353  -0.117089
   39  CL 3  S    0.009345   0.016185   0.000000   0.002045   0.002042
   40  CL 3  S    0.021627   0.037458   0.000000  -0.023726   0.022334
   41  CL 3  X   -0.310061   0.406214   0.182192  -0.085454  -0.270216
   42  CL 3  Y    0.406214   0.158994  -0.105188  -0.148010   0.096722
   43  CL 3  Z    0.088058   0.152520   0.000000  -0.466950  -0.123553
   44  CL 3  X    0.341397  -0.451794  -0.207189   0.094611   0.293720
   45  CL 3  Y   -0.451794  -0.180290   0.119621   0.163871  -0.116276
   46  CL 3  Z   -0.084871  -0.147002   0.000000   0.506175   0.144002
   47  CL 3 XX    0.028595   0.008613  -0.367285   0.151179   0.351664
   48  CL 3 YY   -0.087200  -0.110120   0.367285   0.131250  -0.138375
   49  CL 3 ZZ    0.058605   0.101507   0.000000  -0.282429  -0.213288
   50  CL 3 XY   -0.068551  -0.146010  -0.244856  -0.019929   0.301863
   51  CL 3 XZ   -0.345098   0.172628   0.196500   0.101240   0.035810
   52  CL 3 YZ    0.172628  -0.145764  -0.113450   0.175353   0.117089
   53  CL 4  S   -0.018689   0.000000   0.000000   0.002045  -0.004084
   54  CL 4  S   -0.043253   0.000000   0.000000  -0.023726  -0.044669
   55  CL 4  X    0.393521   0.000000   0.000000   0.170908  -0.102688
   56  CL 4  Y    0.000000  -0.544589   0.210377   0.000000   0.000000
   57  CL 4  Z   -0.176115   0.000000   0.000000  -0.466950   0.247106
   58  CL 4  X   -0.441133   0.000000   0.000000  -0.189222   0.092324
   59  CL 4  Y    0.000000   0.602240  -0.239242   0.000000   0.000000
   60  CL 4  Z    0.169743   0.000000   0.000000   0.506175  -0.288004
   61  CL 4 XX    0.219329   0.000000   0.000000   0.121286  -0.421063
   62  CL 4 YY   -0.102119   0.000000   0.000000   0.161143  -0.005514
   63  CL 4 ZZ   -0.117210   0.000000   0.000000  -0.282429   0.426576
   64  CL 4 XY    0.000000  -0.027277   0.489713   0.000000   0.000000
   65  CL 4 XZ   -0.046097   0.000000   0.000000  -0.202480   0.238614
   66  CL 4 YZ    0.000000  -0.444765   0.226899   0.000000   0.000000

                     36         37         38         39         40
                    0.7471     0.7582     0.7582     0.7626     0.7654
                     E          E          E          A2         A1  
    1  BI 1  S    0.000000   0.000000   0.000000   0.000000  -0.065299
    2  BI 1  S    0.000000   0.000000   0.000000   0.000000  -0.164730
    3  BI 1  S    0.000000   0.000000   0.000000   0.000000   0.178592
    4  BI 1  X    0.000000   0.023274   0.000000   0.000000   0.000000
    5  BI 1  Y   -0.028629   0.000000  -0.023274   0.000000   0.000000
    6  BI 1  Z    0.000000   0.000000   0.000000   0.000000   0.009358
    7  BI 1  X    0.000000   0.015128   0.000000   0.000000   0.000000
    8  BI 1  Y   -0.069823   0.000000  -0.015128   0.000000   0.000000
    9  BI 1  Z    0.000000   0.000000   0.000000   0.000000  -0.017513
   10  BI 1  X    0.000000  -0.018052   0.000000   0.000000   0.000000
   11  BI 1  Y    0.105370   0.000000   0.018052   0.000000   0.000000
   12  BI 1  Z    0.000000   0.000000   0.000000   0.000000   0.086025
   13  BI 1 XX    0.000000   0.031048   0.000000   0.000000   0.011005
   14  BI 1 YY    0.000000  -0.031048   0.000000   0.000000   0.011005
   15  BI 1 ZZ    0.000000   0.000000   0.000000   0.000000  -0.022010
   16  BI 1 XY   -0.010901   0.000000   0.035851   0.000000   0.000000
   17  BI 1 XZ    0.000000   0.015402   0.000000   0.000000   0.000000
   18  BI 1 YZ    0.022774   0.000000  -0.015402   0.000000   0.000000
   19  BI 1 XX    0.000000  -0.053786   0.000000   0.000000  -0.010620
   20  BI 1 YY    0.000000   0.053786   0.000000   0.000000  -0.010620
   21  BI 1 ZZ    0.000000   0.000000   0.000000   0.000000   0.021239
   22  BI 1 XY    0.037731   0.000000  -0.062107   0.000000   0.000000
   23  BI 1 XZ    0.000000  -0.032331   0.000000   0.000000   0.000000
   24  BI 1 YZ   -0.089034   0.000000   0.032331   0.000000   0.000000
   25  CL 2  S    0.003537  -0.002404  -0.004164   0.000000  -0.011658
   26  CL 2  S    0.038684  -0.002956  -0.005120   0.000000   0.009474
   27  CL 2  X    0.096722   0.164516  -0.026579   0.159978  -0.004184
   28  CL 2  Y    0.158531   0.026579  -0.133825   0.092363   0.007247
   29  CL 2  Z   -0.214000  -0.177983  -0.308276   0.000000   0.185718
   30  CL 2  X   -0.116276  -0.163682   0.028913  -0.166233   0.007901
   31  CL 2  Y   -0.159456  -0.028913   0.130296  -0.095975  -0.013685
   32  CL 2  Z    0.249419   0.184741   0.319981   0.000000  -0.201980
   33  CL 2 XX   -0.076708  -0.297067  -0.017274  -0.130139   0.322358
   34  CL 2 YY    0.446134   0.246951  -0.069530   0.130139   0.087556
   35  CL 2 ZZ   -0.369426   0.050116   0.086803   0.000000  -0.409914
   36  CL 2 XY   -0.065637   0.030170  -0.279251   0.086760   0.234802
   37  CL 2 XZ    0.117089  -0.164028   0.351561  -0.454832  -0.125578
   38  CL 2 YZ   -0.171013  -0.351561  -0.241920  -0.262598   0.217507
   39  CL 3  S   -0.003537  -0.002404   0.004164   0.000000  -0.011658
   40  CL 3  S   -0.038684  -0.002956   0.005120   0.000000   0.009474
   41  CL 3  X   -0.096722   0.164516   0.026579  -0.159978  -0.004184
   42  CL 3  Y    0.158531  -0.026579  -0.133825   0.092363  -0.007247
[...]
   44  CL 3  X    0.242050   0.039840  -0.057311  -0.061746   0.197571
   45  CL 3  Y    0.039840   0.288053  -0.099266   0.197571   0.166390
   46  CL 3  Z    0.096406   0.166980   0.253837  -0.132233  -0.229035
   47  CL 3 XX   -0.004644   0.004009  -0.004256  -0.020576   0.002395
   48  CL 3 YY   -0.003381  -0.017909   0.005753   0.014371  -0.013143
   49  CL 3 ZZ    0.008025   0.013900  -0.001497   0.006206   0.010748
   50  CL 3 XY   -0.012655  -0.013883   0.010009  -0.008971   0.009818
   51  CL 3 XZ    0.007780   0.000271  -0.007272   0.010594  -0.020366
   52  CL 3 YZ    0.000271   0.008092  -0.012595  -0.020366  -0.012923
   53  CL 4  S   -0.010513   0.000000  -0.004225   0.114871   0.000000
   54  CL 4  S   -0.002733   0.000000   0.013350   0.300549   0.000000
   55  CL 4  X    0.357077   0.000000   0.119866   0.149136   0.000000
   56  CL 4  Y    0.000000   0.255478   0.000000   0.000000  -0.107133
   57  CL 4  Z   -0.224363   0.000000   0.270867   0.162666   0.000000
   58  CL 4  X    0.311055   0.000000   0.114622   0.280458   0.000000
   59  CL 4  Y    0.000000   0.219049   0.000000   0.000000  -0.175814
   60  CL 4  Z   -0.192812   0.000000   0.253837   0.264467   0.000000
   61  CL 4 XX    0.026375   0.000000   0.010757   0.002189   0.000000
   62  CL 4 YY   -0.010325   0.000000  -0.009260   0.010222   0.000000
   63  CL 4 ZZ   -0.016051   0.000000  -0.001497  -0.012411   0.000000
   64  CL 4 XY    0.000000   0.008036   0.000000   0.000000   0.025356
   65  CL 4 XZ    0.008249   0.000000   0.014544  -0.024682   0.000000
   66  CL 4 YZ    0.000000   0.007623   0.000000   0.000000   0.022353

                     21         22         23         24         25
                    0.0277     0.3651     0.3651     0.3666     0.4195
                     A1         E          E          A1         E   
    1  BI 1  S   -0.328385   0.000000   0.000000   0.095754   0.000000
    2  BI 1  S   -0.146220   0.000000   0.000000   0.016265   0.000000
    3  BI 1  S   -0.667116   0.000000   0.000000   0.278010   0.000000
    4  BI 1  X    0.000000  -0.427549   0.000000   0.000000  -0.139123
    5  BI 1  Y    0.000000   0.000000  -0.427549   0.000000   0.000000
    6  BI 1  Z    0.249879   0.000000   0.000000   0.392800   0.000000
    7  BI 1  X    0.000000  -1.416580   0.000000   0.000000  -0.459063
    8  BI 1  Y    0.000000   0.000000  -1.416580   0.000000   0.000000
    9  BI 1  Z    0.284425   0.000000   0.000000   1.320603   0.000000
   10  BI 1  X    0.000000   1.440287   0.000000   0.000000   0.434586
   11  BI 1  Y    0.000000   0.000000   1.440287   0.000000   0.000000
   12  BI 1  Z    0.928047   0.000000   0.000000  -1.418217   0.000000
   13  BI 1 XX   -0.000512   0.043722   0.000000  -0.116241  -0.281992
   14  BI 1 YY   -0.000512  -0.043722   0.000000  -0.116241   0.281992
   15  BI 1 ZZ    0.001025   0.000000   0.000000   0.232482   0.000000
   16  BI 1 XY    0.000000   0.000000  -0.050485   0.000000   0.000000
   17  BI 1 XZ    0.000000  -0.148869   0.000000   0.000000   0.215312
   18  BI 1 YZ    0.000000   0.000000  -0.148869   0.000000   0.000000
   19  BI 1 XX   -0.006378  -0.140232   0.000000   0.269115   0.651104
   20  BI 1 YY   -0.006378   0.140232   0.000000   0.269115  -0.651104
   21  BI 1 ZZ    0.012756   0.000000   0.000000  -0.538230   0.000000
   22  BI 1 XY    0.000000   0.000000   0.161926   0.000000   0.000000
   23  BI 1 XZ    0.000000   0.277143   0.000000   0.000000  -0.515367
   24  BI 1 YZ    0.000000   0.000000   0.277143   0.000000   0.000000
   25  CL 2  S    0.091452   0.001498  -0.002595  -0.015368   0.002985
   26  CL 2  S    0.237478  -0.141184   0.244538  -0.221375  -0.029380
   27  CL 2  X   -0.100404  -0.036425   0.070380  -0.043590  -0.150440
   28  CL 2  Y    0.173905   0.070380  -0.117694   0.075500  -0.098909
   29  CL 2  Z    0.026260  -0.000302   0.000523   0.001987   0.054130
   30  CL 2  X   -0.184019  -0.061599  -0.032927   0.067662  -0.075108
   31  CL 2  Y    0.318731  -0.032927  -0.023577  -0.117193  -0.038168
   32  CL 2  Z    0.049836  -0.038997   0.067545  -0.011094   0.023314
   33  CL 2 XX    0.001120   0.062459   0.003731   0.014332  -0.085167
   34  CL 2 YY   -0.022921  -0.094754   0.052206  -0.078990   0.153328
   35  CL 2 ZZ    0.021801   0.032295  -0.055937   0.064658  -0.068161
   36  CL 2 XY    0.024042   0.027987  -0.123083   0.093322   0.097909
   37  CL 2 XZ    0.003198   0.019905  -0.070102  -0.000093   0.107062
   38  CL 2 YZ   -0.005539  -0.070102   0.100853   0.000162  -0.006191
   39  CL 3  S    0.091452   0.001498   0.002595  -0.015368   0.002985
   40  CL 3  S    0.237478  -0.141184  -0.244538  -0.221375  -0.029380
   41  CL 3  X   -0.100404  -0.036425  -0.070380  -0.043590  -0.150440
   42  CL 3  Y   -0.173905  -0.070380  -0.117694  -0.075500   0.098909
   43  CL 3  Z    0.026260  -0.000302  -0.000523   0.001987   0.054130
   44  CL 3  X   -0.184019  -0.061599   0.032927   0.067662  -0.075108
   45  CL 3  Y   -0.318731   0.032927  -0.023577   0.117193   0.038168
   46  CL 3  Z    0.049836  -0.038997  -0.067545  -0.011094   0.023314
   47  CL 3 XX    0.001120   0.062459  -0.003731   0.014332  -0.085167
   48  CL 3 YY   -0.022921  -0.094754  -0.052206  -0.078990   0.153328
   49  CL 3 ZZ    0.021801   0.032295   0.055937   0.064658  -0.068161
   50  CL 3 XY   -0.024042  -0.027987  -0.123083  -0.093322  -0.097909
   51  CL 3 XZ    0.003198   0.019905   0.070102  -0.000093   0.107062
   52  CL 3 YZ    0.005539   0.070102   0.100853  -0.000162   0.006191
   53  CL 4  S    0.091452  -0.002996   0.000000  -0.015368  -0.005970
   54  CL 4  S    0.237478   0.282369   0.000000  -0.221375   0.058760
   55  CL 4  X    0.200808  -0.158328   0.000000   0.087180   0.020876
   56  CL 4  Y    0.000000   0.000000   0.004209   0.000000   0.000000
   57  CL 4  Z    0.026260   0.000604   0.000000   0.001987  -0.108260
   58  CL 4  X    0.368039  -0.004567   0.000000  -0.135323  -0.008999
   59  CL 4  Y    0.000000   0.000000  -0.080610   0.000000   0.000000
   60  CL 4  Z    0.049836   0.077995   0.000000  -0.011094  -0.046628
   61  CL 4 XX   -0.034942   0.152881   0.000000  -0.125652  -0.040546
   62  CL 4 YY    0.013141  -0.088291   0.000000   0.060993  -0.095777
   63  CL 4 ZZ    0.021801  -0.064590   0.000000   0.064658   0.136323
   64  CL 4 XY    0.000000   0.000000  -0.074608   0.000000   0.000000
   65  CL 4 XZ   -0.006395   0.141326   0.000000   0.000187   0.117785
   66  CL 4 YZ    0.000000   0.000000  -0.020568   0.000000   0.000000

                     26         27         28
                    0.4195     0.4329     0.5825
                     E          A1         E   
    1  BI 1  S    0.000000   0.014358   0.000000
    2  BI 1  S    0.000000   0.078147   0.000000
    3  BI 1  S    0.000000  -0.112105   0.000000
    4  BI 1  X    0.000000   0.000000  -0.116090
    5  BI 1  Y   -0.139123   0.000000   0.000000
    6  BI 1  Z    0.000000  -0.255202   0.000000
    7  BI 1  X    0.000000   0.000000  -0.494234
    8  BI 1  Y   -0.459063   0.000000   0.000000
    9  BI 1  Z    0.000000  -0.853151   0.000000
   10  BI 1  X    0.000000   0.000000   1.188348
   11  BI 1  Y    0.434586   0.000000   0.000000
   12  BI 1  Z    0.000000   0.835226   0.000000
   13  BI 1 XX    0.000000  -0.172191   0.199837
   14  BI 1 YY    0.000000  -0.172191  -0.199837
   15  BI 1 ZZ    0.000000   0.344381   0.000000
   16  BI 1 XY    0.325617   0.000000   0.000000
   17  BI 1 XZ    0.000000   0.000000   0.290285
   18  BI 1 YZ    0.215312   0.000000   0.000000
   19  BI 1 XX    0.000000   0.404779  -0.639842
   20  BI 1 YY    0.000000   0.404779   0.639842
   21  BI 1 ZZ    0.000000  -0.809558   0.000000
   22  BI 1 XY   -0.751830   0.000000   0.000000
   23  BI 1 XZ    0.000000   0.000000  -0.903336
   24  BI 1 YZ   -0.515367   0.000000   0.000000
   25  CL 2  S   -0.005171   0.001433  -0.128200
   26  CL 2  S    0.050888   0.074398  -0.245702
   27  CL 2  X   -0.098909  -0.024296  -0.122233
   28  CL 2  Y   -0.036229   0.042083   0.071720
   29  CL 2  Z   -0.093756  -0.158056   0.061307
   30  CL 2  X   -0.038168  -0.015358   0.185921
   31  CL 2  Y   -0.031036   0.026601  -0.335924
   32  CL 2  Z   -0.040381  -0.080411  -0.226902
   33  CL 2 XX   -0.143821  -0.020520  -0.063223
   34  CL 2 YY    0.025762  -0.047064   0.089503
   35  CL 2 ZZ    0.118059   0.067584  -0.026279
   36  CL 2 XY    0.024640   0.026543  -0.035432
   37  CL 2 XZ   -0.006191  -0.085443  -0.127908
   38  CL 2 YZ    0.114211   0.147992  -0.004149
   39  CL 3  S    0.005171   0.001433  -0.128200
   40  CL 3  S   -0.050888   0.074398  -0.245702
   41  CL 3  X    0.098909  -0.024296  -0.122233
   42  CL 3  Y   -0.036229  -0.042083  -0.071720
   43  CL 3  Z    0.093756  -0.158056   0.061307
   44  CL 3  X    0.038168  -0.015358   0.185921
   45  CL 3  Y   -0.031036  -0.026601   0.335924
   46  CL 3  Z    0.040381  -0.080411  -0.226902
   47  CL 3 XX    0.143821  -0.020520  -0.063223
   48  CL 3 YY   -0.025762  -0.047064   0.089503
   49  CL 3 ZZ   -0.118059   0.067584  -0.026279
   50  CL 3 XY    0.024640  -0.026543   0.035432
   51  CL 3 XZ    0.006191  -0.085443  -0.127908
   52  CL 3 YZ    0.114211  -0.147992   0.004149
   53  CL 4  S    0.000000   0.001433   0.256401
   54  CL 4  S    0.000000   0.074398   0.491404
   55  CL 4  X    0.000000   0.048593  -0.246456
   56  CL 4  Y   -0.207545   0.000000   0.000000
   57  CL 4  Z    0.000000  -0.158056  -0.122613
   58  CL 4  X    0.000000   0.030716   0.767758
   59  CL 4  Y   -0.097145   0.000000   0.000000
   60  CL 4  Z    0.000000  -0.080411   0.453803
   61  CL 4 XX    0.000000  -0.060335  -0.155790
   62  CL 4 YY    0.000000  -0.007249   0.103232
   63  CL 4 ZZ    0.000000   0.067584   0.052558
   64  CL 4 XY    0.194223   0.000000   0.000000
   65  CL 4 XZ    0.000000   0.170886  -0.120722
   66  CL 4 YZ    0.103488   0.000000   0.000000

     ----------------------------------------------------------------
     PROPERTY VALUES FOR THE RHF   SELF-CONSISTENT FIELD WAVEFUNCTION
     ----------------------------------------------------------------

          -----------------
          ENERGY COMPONENTS
          -----------------

         WAVEFUNCTION NORMALIZATION =       1.0000000000

                ONE ELECTRON ENERGY =    -380.2182414611
                TWO ELECTRON ENERGY =     174.5226353996
           NUCLEAR REPULSION ENERGY =      89.2979158206
                                      ------------------
                       TOTAL ENERGY =    -116.3976902409

 ELECTRON-ELECTRON POTENTIAL ENERGY =     174.5226353996
  NUCLEUS-ELECTRON POTENTIAL ENERGY =    -586.3576188029
   NUCLEUS-NUCLEUS POTENTIAL ENERGY =      89.2979158206
                                      ------------------
             TOTAL POTENTIAL ENERGY =    -322.5370675827
               TOTAL KINETIC ENERGY =     206.1393773418
                 VIRIAL RATIO (V/T) =       1.5646552917

          ---------------------------------------
          MULLIKEN AND LOWDIN POPULATION ANALYSES
          ---------------------------------------

     ATOMIC MULLIKEN POPULATION IN EACH MOLECULAR ORBITAL

                      1          2          3          4          5

                  2.000000   2.000000   2.000000   2.000000   2.000000

    1             1.975952   1.975952   1.996744   1.996744   1.997507
    2             0.004083   0.011949   0.000872   0.001298   0.000831
    3             0.004083   0.011949   0.000872   0.001298   0.000831
    4             0.015881   0.000151   0.001511   0.000659   0.000831

                      6          7          8          9         10

                  2.000000   2.000000   2.000000   2.000000   2.000000

    1             0.252740   0.104317   0.104317   1.380953   0.433482
    2             0.582420   0.315901   0.947887   0.206349   0.382351
    3             0.582420   0.315901   0.947887   0.206349   0.382351
    4             0.582420   1.263880  -0.000092   0.206349   0.801816

                     11         12         13         14         15

                  2.000000   2.000000   2.000000   2.000000   2.000000

    1             0.433482   0.401882   0.051492   0.051492   0.000000
    2             0.661994   0.532706   0.665609   0.633396   0.666667
    3             0.661994   0.532706   0.665609   0.633396   0.666667
    4             0.242530   0.532706   0.617289   0.681716   0.666667

                     16         17         18

                  2.000000   2.000000   2.000000

    1             0.031834   0.031834   0.615649
    2             0.503934   0.808177   0.461450
    3             0.503934   0.808177   0.461450
    4             0.960298   0.351812   0.461450

               ----- POPULATIONS IN EACH AO -----
                             MULLIKEN      LOWDIN
              1  BI 1  S     -0.00286     0.21052
              2  BI 1  S      0.68396     0.34996
              3  BI 1  S      1.19858     0.45504
              4  BI 1  X      0.00996     0.02898
              5  BI 1  Y      0.00996     0.02899
              6  BI 1  Z      0.01465     0.04168
              7  BI 1  X      0.29497     0.23742
              8  BI 1  Y      0.29497     0.23724
              9  BI 1  Z      0.41979     0.36051
             10  BI 1  X      0.18615     0.26268
             11  BI 1  Y      0.18615     0.26295
             12  BI 1  Z      0.29785     0.39491
             13  BI 1 XX      2.00397     1.30409
             14  BI 1 YY      2.00391     1.30404
             15  BI 1 ZZ      2.00391     1.30013
             16  BI 1 XY      2.00234     1.91225
             17  BI 1 XZ      2.00234     1.90948
             18  BI 1 YZ      0.00000     1.90941
             19  BI 1 XX      0.03279     0.34562
             20  BI 1 YY      0.05188     0.34520
             21  BI 1 ZZ      0.05188     0.36723
             22  BI 1 XY      0.04461     0.18095
             23  BI 1 XZ      0.04461     0.16132
             24  BI 1 YZ      0.00000     0.16100
             25  CL 2  S      1.32051     0.84130
             26  CL 2  S      0.62871     0.34856
             27  CL 2  X      1.02038     0.99596
             28  CL 2  Y      0.93856     0.90739
             29  CL 2  Z      1.01871     0.99500
             30  CL 2  X      0.84004     0.85047
             31  CL 2  Y      0.76319     0.77822
             32  CL 2  Z      0.83509     0.84676
             33  CL 2 XX      0.00262     0.24145
             34  CL 2 YY      0.00373     0.24340
             35  CL 2 ZZ      0.00602     0.24145
             36  CL 2 XY      0.00313     0.00676
             37  CL 2 XZ      0.00717     0.00365
             38  CL 2 YZ      0.00000     0.00874
             39  CL 3  S      1.32051     0.84130
             40  CL 3  S      0.62871     0.34856
             41  CL 3  X      1.02038     0.99596
             42  CL 3  Y      0.93856     0.90739
             43  CL 3  Z      1.01871     0.99500
             44  CL 3  X      0.84004     0.85047
             45  CL 3  Y      0.76319     0.77822
             46  CL 3  Z      0.83509     0.84676
             47  CL 3 XX      0.00262     0.24145
             48  CL 3 YY      0.00373     0.24340
             49  CL 3 ZZ      0.00602     0.24145
             50  CL 3 XY      0.00313     0.00676
             51  CL 3 XZ      0.00717     0.00365
             52  CL 3 YZ      0.00000     0.00874
             53  CL 4  S      1.32051     0.84163
             54  CL 4  S      0.62871     0.34919
             55  CL 4  X      0.89766     0.86403
             56  CL 4  Y      1.06129     1.03943
             57  CL 4  Z      1.01871     0.99545
             58  CL 4  X      0.72477     0.74378
             59  CL 4  Y      0.87846     0.88199
             60  CL 4  Z      0.83509     0.84856
             61  CL 4 XX      0.00262     0.24691
             62  CL 4 YY      0.00717     0.24220
             63  CL 4 ZZ      0.00258     0.24194
             64  CL 4 XY      0.00919     0.00253
             65  CL 4 XZ      0.00111     0.01158
             66  CL 4 YZ      0.00000     0.00097

          ----- MULLIKEN ATOMIC OVERLAP POPULATIONS -----
          (OFF-DIAGONAL ELEMENTS NEED TO BE MULTIPLIED BY 2)

             1           2           3           4

    1   13.2671235
    2    0.1897501   7.2227539
    3    0.1897501  -0.0123143   7.2227539
    4    0.1897501  -0.0123143  -0.0123143   7.2227539

          TOTAL MULLIKEN AND LOWDIN ATOMIC POPULATIONS
       ATOM         MULL.POP.    CHARGE          LOW.POP.     CHARGE
    1 BI           13.836374    1.163626        14.071592    0.928408
    2 CL            7.387875   -0.387875         7.309096   -0.309096
    3 CL            7.387875   -0.387875         7.309096   -0.309096
    4 CL            7.387875   -0.387875         7.310217   -0.310217

          MULLIKEN SPHERICAL HARMONIC POPULATIONS
       ATOM           S       P       D      F      G      H      I    TOTAL
    1 BI            1.88    1.71   10.24   0.00   0.00   0.00   0.00   13.84
    2 CL            1.95    5.42    0.02   0.00   0.00   0.00   0.00    7.39
    3 CL            1.95    5.42    0.02   0.00   0.00   0.00   0.00    7.39
    4 CL            1.95    5.42    0.02   0.00   0.00   0.00   0.00    7.39

          -------------------------------
          BOND ORDER AND VALENCE ANALYSIS     BOND ORDER THRESHOLD=0.050
          -------------------------------

                   BOND                       BOND                       BOND
  ATOM PAIR DIST  ORDER      ATOM PAIR DIST  ORDER      ATOM PAIR DIST  ORDER
    1   2  2.445  0.893        1   3  2.445  0.893        1   4  2.445  0.893

                       TOTAL       BONDED        FREE
      ATOM            VALENCE     VALENCE     VALENCE
    1 BI                2.678       2.678       0.000
    2 CL                0.925       0.925       0.000
    3 CL                0.925       0.925       0.000
    4 CL                0.925       0.925       0.000

          ---------------------
          ELECTROSTATIC MOMENTS
          ---------------------

 POINT   1           X           Y           Z (BOHR)    CHARGE
                 0.000000    0.000000    0.000000        0.00 (A.U.)
         DX          DY          DZ         /D/  (DEBYE)
     0.000000    0.000000    4.622346    4.622346
 ...... END OF PROPERTY EVALUATION ......
 STEP CPU TIME =     0.01 TOTAL CPU TIME =        9.3 (    0.2 MIN)
 TOTAL WALL CLOCK TIME=        9.7 SECONDS, CPU UTILIZATION IS  95.59%
  $VIB   
          IVIB=   0 IATOM=   0 ICOORD=   0 E=     -116.3976902409
  1.985233470E-23-4.116873424E-23-7.012611062E-08-7.340647975E-08 1.271437525E-07
  2.337537021E-08-7.340647975E-08-1.271437525E-07 2.337537021E-08 1.468129595E-07
 -1.323488980E-23 2.337537021E-08
  9.030166837E-15-3.370408388E-14 4.622346281E+00
 ......END OF GEOMETRY SEARCH......
 STEP CPU TIME =     0.00 TOTAL CPU TIME =        9.3 (    0.2 MIN)
 TOTAL WALL CLOCK TIME=        9.8 SECONDS, CPU UTILIZATION IS  95.19%
               1074666  WORDS OF DYNAMIC MEMORY USED
 EXECUTION OF GAMESS TERMINATED NORMALLY Tue Sep 13 13:59:10 2016
 DDI: 263624 bytes (0.3 MB / 0 MWords) used by master data server.

 ----------------------------------------
 CPU timing information for all processes
 ========================================
 0: 9.216 + 0.148 = 9.364
 1: 11.828 + 0.28 = 11.856
 ----------------------------------------
----- accounting info -----
Files used on the master node g4noden2 were:
-rw-r--r-- 1 g4rosendo g4  240162 sep 13 13:59 /scratch/g4rosendo/exam38.dat
-rw-r--r-- 1 g4rosendo g4     942 sep 13 13:58 /scratch/g4rosendo/exam38.F05
-rw-r--r-- 1 g4rosendo g4 4860432 sep 13 13:59 /scratch/g4rosendo/exam38.F08
-rw-r--r-- 1 g4rosendo g4 2094080 sep 13 13:59 /scratch/g4rosendo/exam38.F10
-rw-r--r-- 1 g4rosendo g4       0 sep 13 13:58 /scratch/g4rosendo/exam38.nodes.mpd
mar sep 13 13:59:12 CEST 2016
21.341u 0.360s 0:14.81 146.5%	0+0k 70224+67744io 161pf+0w
