----- GAMESS execution script 'rungms' -----
This job is running on host g4noden2
under operating system Linux at mar sep 13 13:59:48 CEST 2016
Available scratch disk space (Kbyte units) at beginning of the job is
Filesystem           1K-blocks      Used Available Use% Mounted on
/dev/mapper/vgsys-scratch
                     941038652  50796196 890242456   6% /scratch
GAMESS temporary binary files will be written to /scratch/g4rosendo
GAMESS supplementary output files will be written to /scratch/g4rosendo
Copying input file exam41.inp to your run's scratch directory...
MPI kickoff will run GAMESS on 2 cores in 2 nodes.
The binary to be executed is /aplic/gamess/gamess-2013r1_intel11.1_mkl11.1_ompi-1.4.2/gamess.00.x
MPI will run 2 compute processes and 2 data servers,
    placing  of each process type onto each node.
The scratch disk space on each node is /scratch/g4rosendo, with free space
Filesystem           1K-blocks      Used Available Use% Mounted on
/dev/mapper/vgsys-scratch
                     941038652  50796220 890242432   6% /scratch
          ******************************************************
          *         GAMESS VERSION =  1 MAY 2013 (R1)          *
          *             FROM IOWA STATE UNIVERSITY             *
          * M.W.SCHMIDT, K.K.BALDRIDGE, J.A.BOATZ, S.T.ELBERT, *
          *   M.S.GORDON, J.H.JENSEN, S.KOSEKI, N.MATSUNAGA,   *
          *          K.A.NGUYEN, S.J.SU, T.L.WINDUS,           *
          *       TOGETHER WITH M.DUPUIS, J.A.MONTGOMERY       *
          *         J.COMPUT.CHEM.  14, 1347-1363(1993)        *
          **************** 64 BIT INTEL VERSION ****************

  SINCE 1993, STUDENTS AND POSTDOCS WORKING AT IOWA STATE UNIVERSITY
  AND ALSO IN THEIR VARIOUS JOBS AFTER LEAVING ISU HAVE MADE IMPORTANT
  CONTRIBUTIONS TO THE CODE:
     IVANA ADAMOVIC, CHRISTINE AIKENS, YURI ALEXEEV, POOJA ARORA,
     ANDREY ASADCHEV, ROB BELL, PRADIPTA BANDYOPADHYAY, JONATHAN BENTZ,
     BRETT BODE, GALINA CHABAN, WEI CHEN, CHEOL HO CHOI, PAUL DAY,
     ALBERT DEFUSCO, TIM DUDLEY, DMITRI FEDOROV, GRAHAM FLETCHER,
     MARK FREITAG, KURT GLAESEMANN, DAN KEMP, GRANT MERRILL,
     NORIYUKI MINEZAWA, JONATHAN MULLIN, TAKESHI NAGATA,
     SEAN NEDD, HEATHER NETZLOFF, BOSILJKA NJEGIC, RYAN OLSON, MIKE PAK,
     JIM SHOEMAKER, LYUDMILA SLIPCHENKO, SAROM SOK, JIE SONG,
     TETSUYA TAKETSUGU, SIMON WEBB, SOOHAENG YOO, FEDERICO ZAHARIEV

  ADDITIONAL CODE HAS BEEN PROVIDED BY COLLABORATORS IN OTHER GROUPS:
     IOWA STATE UNIVERSITY:
          JOE IVANIC, LAIMUTIS BYTAUTAS, KLAUS RUEDENBERG
     UNIVERSITY OF TOKYO: KIMIHIKO HIRAO, TAKAHITO NAKAJIMA,
          TAKAO TSUNEDA, MUNEAKI KAMIYA, SUSUMU YANAGISAWA,
          KIYOSHI YAGI, MAHITO CHIBA, SEIKEN TOKURA, NAOAKI KAWAKAMI
     UNIVERSITY OF AARHUS: FRANK JENSEN
     UNIVERSITY OF IOWA: VISVALDAS KAIRYS, HUI LI
     NATIONAL INST. OF STANDARDS AND TECHNOLOGY: WALT STEVENS, DAVID GARMER
     UNIVERSITY OF PISA: BENEDETTA MENNUCCI, JACOPO TOMASI
     UNIVERSITY OF MEMPHIS: HENRY KURTZ, PRAKASHAN KORAMBATH
     UNIVERSITY OF ALBERTA: TOBY ZENG, MARIUSZ KLOBUKOWSKI
     UNIVERSITY OF NEW ENGLAND: MARK SPACKMAN
     MIE UNIVERSITY: HIROAKI UMEDA
     MICHIGAN STATE UNIVERSITY:
          KAROL KOWALSKI, MARTA WLOCH, JEFFREY GOUR, JESSE LUTZ,
          WEI LI, PIOTR PIECUCH
     UNIVERSITY OF SILESIA: MONIKA MUSIAL, STANISLAW KUCHARSKI
     FACULTES UNIVERSITAIRES NOTRE-DAME DE LA PAIX:
          OLIVIER QUINET, BENOIT CHAMPAGNE
     UNIVERSITY OF CALIFORNIA - SANTA BARBARA: BERNARD KIRTMAN
     INSTITUTE FOR MOLECULAR SCIENCE:
          KAZUYA ISHIMURA, MICHIO KATOUDA, AND SHIGERU NAGASE
     UNIVERSITY OF NOTRE DAME: DAN CHIPMAN
     KYUSHU UNIVERSITY:
          HARUYUKI NAKANO,
          FENG LONG GU, JACEK KORCHOWIEC, MARCIN MAKOWSKI, AND YURIKO AOKI,
          HIROTOSHI MORI AND EISAKU MIYOSHI
     PENNSYLVANIA STATE UNIVERSITY:
          TZVETELIN IORDANOV, CHET SWALINA, JONATHAN SKONE,
          SHARON HAMMES-SCHIFFER
     WASEDA UNIVERSITY:
          MASATO KOBAYASHI, TOMOKO AKAMA, TSUGUKI TOUMA,
          TAKESHI YOSHIKAWA, YASUHIRO IKABATA, HIROMI NAKAI
     NANJING UNIVERSITY: SHUHUA LI
     UNIVERSITY OF NEBRASKA:
          PEIFENG SU, DEJUN SI, NANDUN THELLAMUREGE, YALI WANG, HUI LI
     UNIVERSITY OF ZURICH:
          ROBERTO PEVERATI, KIM BALDRIDGE
     N. COPERNICUS UNIVERSITY AND JACKSON STATE UNIVERSITY:
          MARIA BARYSZ

 EXECUTION OF GAMESS BEGUN Tue Sep 13 13:59:50 2016

            ECHO OF THE FIRST FEW INPUT CARDS -
 INPUT CARD>! EXAM 41.                                                                      
 INPUT CARD>!   This job illustrates TDDFT/PBE0/6-31+G(d) for                               
 INPUT CARD>!   the 3 lowest singlet excited states of CO.                                  
 INPUT CARD>!   There are diffuse functions in the basis set,                               
 INPUT CARD>!   as excited states often have Rydberg character.                             
 INPUT CARD>!                                                                               
 INPUT CARD>!   The geometry is the experimental ground state's.                            
 INPUT CARD>!   The first excited state need not have the same                              
 INPUT CARD>!   geometry as the G.S., so its gradient is big.                               
 INPUT CARD>!   experimental Te is 8.06 to 1-pi,                                            
 INPUT CARD>!                      8.17 to 1-sigma-minus                                    
 INPUT CARD>!   Of course this run computes vertical T0 values.                             
 INPUT CARD>!   Computational results on the log file show that                             
 INPUT CARD>!   these two valence states arise from sigma->pi*                              
 INPUT CARD>!   and pi->pi* excitations, respectively.                                      
 INPUT CARD>!                                                                               
 INPUT CARD>!            Results for the gas phase:                                         
 INPUT CARD>!  ground state FINAL E= -113.1878149968, 17 iters                              
 INPUT CARD>!        excitation  transition dipole    oscillator                            
 INPUT CARD>!  state    eV       x       y       z     strength                             
 INPUT CARD>!  0 sig+   .000                                                                
 INPUT CARD>!  1  pi   8.474  -.3724   .5587   .0000     .094                               
 INPUT CARD>!  2  pi   8.474   .5587   .3724   .0000     .094                               
 INPUT CARD>!  3 sig- 10.231   .0000   .0000   .0000     .000                               
 INPUT CARD>!  The 'lambda diagnostic' for the pi state is 0.700                            
 INPUT CARD>!  RMS gradient of 1st excited state= 0.112201641                               
 INPUT CARD>!                                                                               
 INPUT CARD>!     if the Tamm/Dancoff approximation is used:                                
 INPUT CARD>!  0 sig+   .000                                                                
 INPUT CARD>!  1  pi   8.687  -.7421  -.1223   .0000     .120                               
 INPUT CARD>!  2  pi   8.687   .1223  -.7421   .0000     .120                               
 INPUT CARD>!  3 sig- 10.234   .0000   .0000   .0000     .000                               
 INPUT CARD>!                                                                               
 INPUT CARD>!          if aqueous solvation is turned on:                                   
 INPUT CARD>!  E= -113.1885370825, 14 iters, R.M.S.= .105538008                             
 INPUT CARD>!        excitation  transition dipole    oscillator                            
 INPUT CARD>!  state    eV       x       y       z     strength                             
 INPUT CARD>!  0 sig+   .000                                                                
 INPUT CARD>!  1  pi   8.267   .0001   .7499   .0000     .114                               
 INPUT CARD>!  2  pi   8.267   .7499  -.0001   .0000     .114                               
 INPUT CARD>!  3 sig-  9.799   .0000   .0000   .0000     .000                               
 INPUT CARD>!  The solvated first E.S. optimizes to R= 1.2282                               
 INPUT CARD>!                                                                               
 INPUT CARD> $contrl scftyp=rhf dfttyp=pbe0 tddft=excite                                    
 INPUT CARD>         runtyp=gradient $end                                                   
 INPUT CARD> $system timlim=4 $end                                                          
 INPUT CARD> $tddft  nstate=3 mult=1 iroot=1 tammd=.false. $end                             
 INPUT CARD> $guess  guess=huckel $end                                                      
 INPUT CARD> $basis  gbasis=N31 ngauss=6 diffsp=.T. ndfunc=1 $end                           
 INPUT CARD>                                                                                
    1000000 WORDS OF MEMORY AVAILABLE

     BASIS OPTIONS
     -------------
     GBASIS=N31          IGAUSS=       6      POLAR=POPN31  
     NDFUNC=       1     NFFUNC=       0     DIFFSP=       T
     NPFUNC=       0      DIFFS=       F     BASNAM=        


     RUN TITLE
     ---------
 CO...excitation to the 3 lowest singlet states                                  

 THE POINT GROUP OF THE MOLECULE IS CNV     
 THE ORDER OF THE PRINCIPAL AXIS IS     4

 ATOM      ATOMIC                      COORDINATES (BOHR)
           CHARGE         X                   Y                   Z
 C           6.0     0.0000000000        0.0000000000        0.0000000000
 O           8.0     0.0000000000        0.0000000000        2.1322212956

          INTERNUCLEAR DISTANCES (ANGS.)
          ------------------------------

                1 C          2 O     

   1 C       0.0000000    1.1283230 *
   2 O       1.1283230 *  0.0000000  

  * ... LESS THAN  3.000


     ATOMIC BASIS SET
     ----------------
 THE CONTRACTED PRIMITIVE FUNCTIONS HAVE BEEN UNNORMALIZED
 THE CONTRACTED BASIS FUNCTIONS ARE NOW NORMALIZED TO UNITY

  SHELL TYPE  PRIMITIVE        EXPONENT          CONTRACTION COEFFICIENT(S)

 C         

      1   S       1          3047.5248800    0.001834737132
      1   S       2           457.3695180    0.014037322813
      1   S       3           103.9486850    0.068842622264
      1   S       4            29.2101553    0.232184443216
      1   S       5             9.2866630    0.467941348435
      1   S       6             3.1639270    0.362311985337

      2   L       7             7.8682723   -0.119332419775    0.068999066591
      2   L       8             1.8812885   -0.160854151696    0.316423960957
      2   L       9             0.5442493    1.143456437840    0.744308290898

      3   L      10             0.1687145    1.000000000000    1.000000000000

      4   L      11             0.0438000    1.000000000000    1.000000000000

      5   D      12             0.8000000    1.000000000000

 O         

      6   S      13          5484.6716600    0.001831074430
      6   S      14           825.2349460    0.013950172200
      6   S      15           188.0469580    0.068445078098
      6   S      16            52.9645000    0.232714335992
      6   S      17            16.8975704    0.470192897984
      6   S      18             5.7996353    0.358520852987

      7   L      19            15.5396162   -0.110777549525    0.070874268231
      7   L      20             3.5999336   -0.148026262701    0.339752839147
      7   L      21             1.0137618    1.130767015354    0.727158577316

      8   L      22             0.2700058    1.000000000000    1.000000000000

      9   L      23             0.0845000    1.000000000000    1.000000000000

     10   D      24             0.8000000    1.000000000000

 TOTAL NUMBER OF BASIS SET SHELLS             =   10
 NUMBER OF CARTESIAN GAUSSIAN BASIS FUNCTIONS =   38
 NUMBER OF ELECTRONS                          =   14
 CHARGE OF MOLECULE                           =    0
 SPIN MULTIPLICITY                            =    1
 NUMBER OF OCCUPIED ORBITALS (ALPHA)          =    7
 NUMBER OF OCCUPIED ORBITALS (BETA )          =    7
 TOTAL NUMBER OF ATOMS                        =    2
 THE NUCLEAR REPULSION ENERGY IS       22.5117346394

 THIS MOLECULE IS RECOGNIZED AS BEING LINEAR,
 ORBITAL LZ DEGENERACY TOLERANCE ETOLLZ= 1.00E-06

     LEBEDEV GRID-BASED DFT OPTIONS
     ------------------------------
     DFTTYP=PBE0    
     NRAD  =      96     NLEB  =     302
     NRAD0 =      24     NLEB0 =     110
     SWOFF =    5.00E-03 (PURE SCF -> DFT)
     SWITCH=    3.00E-04 (COARSE -> TIGHT GRID)
     THRESH=    0.00E+00 GTHRE=    1.00E+00

 GRIMME'S EMPIRICAL DISPERSION CORRECTION= F

     $CONTRL OPTIONS
     ---------------
 SCFTYP=RHF          RUNTYP=GRADIENT     EXETYP=RUN     
 MPLEVL=       0     CITYP =NONE         CCTYP =NONE         VBTYP =NONE    
 DFTTYP=PBE0         TDDFT =EXCITE  
 MULT  =       1     ICHARG=       0     NZVAR =       0     COORD =UNIQUE  
 PP    =NONE         RELWFN=NONE         LOCAL =NONE         NUMGRD=       F
 ISPHER=      -1     NOSYM =       0     MAXIT =      30     UNITS =ANGS    
 PLTORB=       F     MOLPLT=       F     AIMPAC=       F     FRIEND=        
 NPRINT=       7     IREST =       0     GEOM  =INPUT   
 NORMF =       0     NORMP =       0     ITOL  =      20     ICUT  =       9
 INTTYP=BEST         GRDTYP=BEST         QMTTOL= 1.0E-06

     $SYSTEM OPTIONS
     ---------------
  REPLICATED MEMORY=     1000000 WORDS (ON EVERY NODE).
 DISTRIBUTED MEMDDI=           0 MILLION WORDS IN AGGREGATE,
 MEMDDI DISTRIBUTED OVER   1 PROCESSORS IS           0 WORDS/PROCESSOR.
 TOTAL MEMORY REQUESTED ON EACH PROCESSOR=     1000000 WORDS.
 TIMLIM=           4.00 MINUTES, OR       0.0 DAYS.
 PARALL= F  BALTYP=  DLB     KDIAG=    0  COREFL= F
 MXSEQ2=     300 MXSEQ3=     150

          ----------------
          PROPERTIES INPUT
          ----------------

     MOMENTS            FIELD           POTENTIAL          DENSITY
 IEMOM =       1   IEFLD =       0   IEPOT =       0   IEDEN =       0
 WHERE =COMASS     WHERE =NUCLEI     WHERE =NUCLEI     WHERE =NUCLEI  
 OUTPUT=BOTH       OUTPUT=BOTH       OUTPUT=BOTH       OUTPUT=BOTH    
 IEMINT=       0   IEFINT=       0                     IEDINT=       0
                                                       MORB  =       0
          EXTRAPOLATION IN EFFECT
          DIIS IN EFFECT
 ORBITAL PRINTING OPTION: NPREO=     1    38     2     1

     -------------------------------
     INTEGRAL TRANSFORMATION OPTIONS
     -------------------------------
     NWORD  =            0
     CUTOFF = 1.0E-09     MPTRAN =       0
     DIRTRF =       F     AOINTS =DUP     

          ----------------------
          INTEGRAL INPUT OPTIONS
          ----------------------
 NOPK  =       1 NORDER=       0 SCHWRZ=       F

          ----------------------
          TDDFT INPUT PARAMETERS
          ----------------------
 NSTATE=       3  IROOT=       1   MULT=       1
 MAXVEC=      50 NTRIAL=       5 CNVTOL=  1.00E-07
 TDPRP =       F
   NRAD=      48   NLEB=     110

     ------------------------------------------
     THE POINT GROUP IS CNV, NAXIS= 4, ORDER= 8
     ------------------------------------------

     DIMENSIONS OF THE SYMMETRY SUBSPACES ARE
 A1  =   18     A2  =    0     B1  =    2     B2  =    2     E   =    8

 ..... DONE SETTING UP THE RUN .....
 STEP CPU TIME =     0.00 TOTAL CPU TIME =        0.0 (    0.0 MIN)
 TOTAL WALL CLOCK TIME=        0.1 SECONDS, CPU UTILIZATION IS   0.00%

                    --------------------------------
                    SINGLE POINT ENERGY AND GRADIENT
                    --------------------------------

          ********************
          1 ELECTRON INTEGRALS
          ********************
 ...... END OF ONE-ELECTRON INTEGRALS ......
 STEP CPU TIME =     0.00 TOTAL CPU TIME =        0.0 (    0.0 MIN)
 TOTAL WALL CLOCK TIME=        0.1 SECONDS, CPU UTILIZATION IS   0.00%

          -------------
          GUESS OPTIONS
          -------------
          GUESS =HUCKEL            NORB  =       0          NORDER=       0
          MIX   =       F          PRTMO =       F          PUNMO =       F
          TOLZ  = 1.0E-08          TOLE  = 1.0E-05
          SYMDEN=       F          PURIFY=       F

 INITIAL GUESS ORBITALS GENERATED BY HUCKEL   ROUTINE.
 HUCKEL GUESS REQUIRES     12672 WORDS.

 SYMMETRIES FOR INITIAL GUESS ORBITALS FOLLOW.   BOTH SET(S).
     7 ORBITALS ARE OCCUPIED (    2 CORE ORBITALS).
     3=A1       4=A1       5=E        6=E        7=A1       8=E        9=E   
    10=A1      11=A1      12=A1      13=A1      14=A1      15=A1      16=A1  
    17=A1  
 ...... END OF INITIAL ORBITAL SELECTION ......
 STEP CPU TIME =     0.01 TOTAL CPU TIME =        0.0 (    0.0 MIN)
 TOTAL WALL CLOCK TIME=        0.1 SECONDS, CPU UTILIZATION IS  11.11%

                    ----------------------
                    AO INTEGRAL TECHNOLOGY
                    ----------------------
     S,P,L SHELL ROTATED AXIS INTEGRALS, REPROGRAMMED BY
        KAZUYA ISHIMURA (IMS) AND JOSE SIERRA (SYNSTAR).
     S,P,D,L SHELL ROTATED AXIS INTEGRALS PROGRAMMED BY
        KAZUYA ISHIMURA (INSTITUTE FOR MOLECULAR SCIENCE).
     S,P,D,F,G SHELL TO TOTAL QUARTET ANGULAR MOMENTUM SUM 5,
        ERIC PROGRAM BY GRAHAM FLETCHER (ELORET AND NASA ADVANCED
        SUPERCOMPUTING DIVISION, AMES RESEARCH CENTER).
     S,P,D,F,G,L SHELL GENERAL RYS QUADRATURE PROGRAMMED BY
        MICHEL DUPUIS (PACIFIC NORTHWEST NATIONAL LABORATORY).

          --------------------
          2 ELECTRON INTEGRALS
          --------------------

 THE -PK- OPTION IS OFF, THE INTEGRALS ARE NOT IN SUPERMATRIX FORM.
 STORING   15000 INTEGRALS/RECORD ON DISK, USING 12 BYTES/INTEGRAL.
 TWO ELECTRON INTEGRAL EVALUATION REQUIRES   90451 WORDS OF MEMORY.
 II,JST,KST,LST =  1  1  1  1 NREC =         1 INTLOC =    1
 II,JST,KST,LST =  2  1  1  1 NREC =         1 INTLOC =    2
 II,JST,KST,LST =  3  1  1  1 NREC =         1 INTLOC =   34
 II,JST,KST,LST =  4  1  1  1 NREC =         1 INTLOC =  214
 II,JST,KST,LST =  5  1  1  1 NREC =         1 INTLOC =  776
 II,JST,KST,LST =  6  1  1  1 NREC =         1 INTLOC = 2864
 II,JST,KST,LST =  7  1  1  1 NREC =         1 INTLOC = 4164
 II,JST,KST,LST =  8  1  1  1 NREC =         1 INTLOC =10804
 II,JST,KST,LST =  9  1  1  1 NREC =         2 INTLOC = 6472
 II,JST,KST,LST = 10  1  1  1 NREC =         3 INTLOC = 7422
 TOTAL NUMBER OF NONZERO TWO-ELECTRON INTEGRALS =               72578
          5 INTEGRAL RECORDS WERE STORED ON DISK FILE  8.
  ...... END OF TWO-ELECTRON INTEGRALS .....
 STEP CPU TIME =     0.04 TOTAL CPU TIME =        0.0 (    0.0 MIN)
 TOTAL WALL CLOCK TIME=        0.1 SECONDS, CPU UTILIZATION IS  35.71%

          --------------------------
              R-PBE0 SCF CALCULATION
          --------------------------

     NUCLEAR ENERGY =        22.5117346394
     MAXIT =   30     NPUNCH=    2
     EXTRAP=T  DAMP=F  SHIFT=F  RSTRCT=F  DIIS=T  DEM=F  SOSCF=F
         DENSITY MATRIX CONVERGENCE THRESHOLD=  1.00E-06
     COARSE -> FINE DFT GRID SWITCH THRESHOLD=  3.00E-04 (SWITCH IN $DFT)
                   HF -> DFT SWITCH THRESHOLD=  5.00E-03 (SWOFF IN $DFT)
     MEMORY REQUIRED FOR RHF ITERS=    145367 WORDS.

 DFT CODE IS SWITCHING FROM THE FINE GRID NRAD= 96,  NLEB=  302
                      TO THE COARSE GRID NRAD0= 24, NLEB0=  110

     EXCHANGE FUNCTIONAL   =PBE&HFX   
     CORRELATION FUNCTIONAL=PBE       
     DFT THRESHOLD         =.690E-07
     GRID CHANGE THRESHOLD =.300E-03
 FOR AN EULER-MACLAURIN QUADRATURE USING  96 RADIAL POINTS:
 SMALLEST GAUSSIAN PRIMITIVE EXPONENT=        0.0438000000 OF TYPE -P-
 ON ATOM NUMBER   1 HAS RADIAL NORMALIZATION=  1.000000
  LARGEST GAUSSIAN PRIMITIVE EXPONENT=     5484.6716600000 OF TYPE -S-
 ON ATOM NUMBER   2 HAS RADIAL NORMALIZATION=  1.000000
 DFT IS SWITCHED OFF, PERFORMING PURE SCF UNTIL SWOFF THRESHOLD IS REACHED.

 ITER EX DEM     TOTAL ENERGY        E CHANGE  DENSITY CHANGE    DIIS ERROR
   1  0  0     -112.2691079648  -112.2691079648   0.295927830   0.603401912
          * * *   INITIATING DIIS PROCEDURE   * * *
   2  1  0     -112.6573701727    -0.3882622078   0.244778027   0.241377384
   3  2  0     -112.6796757659    -0.0223055933   0.114441265   0.204371953
   4  3  0     -112.7411368640    -0.0614610981   0.012011803   0.016411495
   5  4  0     -112.7415116283    -0.0003747643   0.003425166   0.003432353
 CONVERGED TO SWOFF, SO DFT CALCULATION IS NOW SWITCHED ON.
          * * *   INITIATING DIIS PROCEDURE   * * *
   6  5  0     -113.1803494297    -0.4388378014   0.076843795   0.078396184
   7  6  0     -113.1858501828    -0.0055007531   0.052893062   0.046716753
   8  7  0     -113.1830466259     0.0028035569   0.035673818   0.066012754
   9  8  0     -113.1888925745    -0.0058459485   0.003303422   0.003016827
  10  9  0     -113.1889213011    -0.0000287266   0.000160325   0.000368892
 DFT CODE IS SWITCHING BACK TO THE FINE GRID
          * * *   INITIATING DIIS PROCEDURE   * * *
  11 10  0     -113.1878106963     0.0011106048   0.001882400   0.001730640
  12 11  0     -113.1878147472    -0.0000040510   0.000474421   0.000352838
  13 12  0     -113.1878144511     0.0000002961   0.000327698   0.000634413
  14 13  0     -113.1878149889    -0.0000005377   0.000053143   0.000054607
  15 14  0     -113.1878149967    -0.0000000078   0.000005014   0.000006720
  16 15  0     -113.1878149968    -0.0000000001   0.000000817   0.000001333
  17 16  0     -113.1878149968     0.0000000000   0.000000142   0.000000256

          -----------------
          DENSITY CONVERGED
          -----------------
     TIME TO FORM FOCK OPERATORS=       1.4 SECONDS (       0.1 SEC/ITER)
     TIME TO SOLVE SCF EQUATIONS=       0.0 SECONDS (       0.0 SEC/ITER)

 FINAL R-PBE0 ENERGY IS     -113.1878149968 AFTER  17 ITERATIONS
 DFT EXCHANGE + CORRELATION ENERGY =       -10.4171298675
 TOTAL ELECTRON NUMBER             =        13.9999997037

 LZ VALUE ANALYSIS FOR THE MOS
 ----------------------------------------
 MO     1 (    1) HAS LZ(WEIGHT)= 0.00(100.0%) 
 MO     2 (    2) HAS LZ(WEIGHT)= 0.00(100.0%) 
 MO     3 (    3) HAS LZ(WEIGHT)= 0.00(100.0%) 
 MO     4 (    4) HAS LZ(WEIGHT)= 0.00(100.0%) 
 MO     5 (    5) HAS LZ(WEIGHT)=-1.00( 50.0%)  1.00( 50.0%) 
 MO     6 (    5) HAS LZ(WEIGHT)=-1.00( 50.0%)  1.00( 50.0%) 
 MO     7 (    6) HAS LZ(WEIGHT)= 0.00(100.0%) 
 MO     8 (    7) HAS LZ(WEIGHT)=-1.00( 50.0%)  1.00( 50.0%) 
 MO     9 (    7) HAS LZ(WEIGHT)=-1.00( 50.0%)  1.00( 50.0%) 
 MO    10 (    8) HAS LZ(WEIGHT)= 0.00(100.0%) 
 MO    11 (    9) HAS LZ(WEIGHT)= 0.00(100.0%) 
 MO    12 (   10) HAS LZ(WEIGHT)=-1.00( 50.0%)  1.00( 50.0%) 
 MO    13 (   10) HAS LZ(WEIGHT)=-1.00( 50.0%)  1.00( 50.0%) 
 MO    14 (   11) HAS LZ(WEIGHT)= 0.00(100.0%) 
 MO    15 (   12) HAS LZ(WEIGHT)=-1.00( 50.0%)  1.00( 50.0%) 
 MO    16 (   12) HAS LZ(WEIGHT)=-1.00( 50.0%)  1.00( 50.0%) 
 MO    17 (   13) HAS LZ(WEIGHT)= 0.00(100.0%) 
 MO    18 (   14) HAS LZ(WEIGHT)= 0.00(100.0%) 
 MO    19 (   15) HAS LZ(WEIGHT)=-1.00( 50.0%)  1.00( 50.0%) 
 MO    20 (   15) HAS LZ(WEIGHT)=-1.00( 50.0%)  1.00( 50.0%) 
 MO    21 (   16) HAS LZ(WEIGHT)= 0.00(100.0%) 
 MO    22 (   17) HAS LZ(WEIGHT)= 0.00(100.0%) 
 MO    23 (   18) HAS LZ(WEIGHT)=-1.00( 50.0%)  1.00( 50.0%) 
 MO    24 (   18) HAS LZ(WEIGHT)=-1.00( 50.0%)  1.00( 50.0%) 
 MO    25 (   19) HAS LZ(WEIGHT)= 0.00(100.0%) 
 MO    26 (   20) HAS LZ(WEIGHT)=-2.00( 50.0%)  2.00( 50.0%) 
 MO    27 (   20) HAS LZ(WEIGHT)=-2.00( 50.0%)  2.00( 50.0%) 
 MO    28 (   21) HAS LZ(WEIGHT)= 0.00(100.0%) 
 MO    29 (   22) HAS LZ(WEIGHT)=-1.00( 50.0%)  1.00( 50.0%) 
 MO    30 (   22) HAS LZ(WEIGHT)=-1.00( 50.0%)  1.00( 50.0%) 
 MO    31 (   23) HAS LZ(WEIGHT)=-2.00( 50.0%)  2.00( 50.0%) 
 MO    32 (   23) HAS LZ(WEIGHT)=-2.00( 50.0%)  2.00( 50.0%) 
 MO    33 (   24) HAS LZ(WEIGHT)= 0.00(100.0%) 
 MO    34 (   25) HAS LZ(WEIGHT)=-1.00( 50.0%)  1.00( 50.0%) 
 MO    35 (   25) HAS LZ(WEIGHT)=-1.00( 50.0%)  1.00( 50.0%) 
 MO    36 (   26) HAS LZ(WEIGHT)= 0.00(100.0%) 
 MO    37 (   27) HAS LZ(WEIGHT)= 0.00(100.0%) 
 MO    38 (   28) HAS LZ(WEIGHT)= 0.00(100.0%) 

          ------------
          EIGENVECTORS
          ------------

                      1          2          3          4          5
                  -19.3465   -10.3630    -1.2047    -0.5998    -0.4966
                     A1         A1         A1         A1         E   
    1  C  1  S    0.000032   0.993505  -0.117125   0.134233   0.000000
    2  C  1  S    0.000288   0.046877   0.221380  -0.295676   0.000000
    3  C  1  X    0.000000   0.000000   0.000000   0.000000   0.319927
    4  C  1  Y    0.000000   0.000000   0.000000   0.000000   0.000000
    5  C  1  Z   -0.000156   0.004277   0.219780  -0.119015   0.000000
    6  C  1  S   -0.000639  -0.011471   0.071178  -0.281780   0.000000
    7  C  1  X    0.000000   0.000000   0.000000   0.000000   0.104451
    8  C  1  Y    0.000000   0.000000   0.000000   0.000000   0.000000
    9  C  1  Z   -0.000895  -0.001373  -0.010608  -0.019688   0.000000
   10  C  1  S    0.001682  -0.001762   0.018457  -0.001158   0.000000
   11  C  1  X    0.000000   0.000000   0.000000   0.000000   0.014948
   12  C  1  Y    0.000000   0.000000   0.000000   0.000000   0.000000
   13  C  1  Z    0.000941  -0.000582   0.017506   0.006827   0.000000
   14  C  1 XX   -0.000076  -0.008412  -0.022245   0.012617   0.000000
   15  C  1 YY   -0.000076  -0.008412  -0.022245   0.012617   0.000000
   16  C  1 ZZ   -0.000890  -0.006311   0.032023  -0.001511   0.000000
   17  C  1 XY    0.000000   0.000000   0.000000   0.000000   0.000000
   18  C  1 XZ    0.000000   0.000000   0.000000   0.000000   0.041761
   19  C  1 YZ    0.000000   0.000000   0.000000   0.000000   0.000000
   20  O  2  S    0.992907  -0.000427  -0.202015  -0.114135   0.000000
   21  O  2  S    0.025025   0.000329   0.442495   0.267943   0.000000
   22  O  2  X    0.000000   0.000000   0.000000   0.000000   0.563944
   23  O  2  Y    0.000000   0.000000   0.000000   0.000000   0.000000
   24  O  2  Z   -0.001462   0.000318  -0.177306   0.491926   0.000000
   25  O  2  S    0.013422  -0.003128   0.364076   0.444242   0.000000
   26  O  2  X    0.000000   0.000000   0.000000   0.000000   0.331543
   27  O  2  Y    0.000000   0.000000   0.000000   0.000000   0.000000
   28  O  2  Z   -0.000075   0.002892  -0.032490   0.198737   0.000000
   29  O  2  S   -0.004417   0.007167  -0.049281   0.058024   0.000000
   30  O  2  X    0.000000   0.000000   0.000000   0.000000   0.023137
   31  O  2  Y    0.000000   0.000000   0.000000   0.000000   0.000000
   32  O  2  Z   -0.000020  -0.003709   0.000959   0.002726   0.000000
   33  O  2 XX   -0.007900   0.000392  -0.005635   0.007685   0.000000
   34  O  2 YY   -0.007900   0.000392  -0.005635   0.007685   0.000000
   35  O  2 ZZ   -0.007408  -0.000923   0.010692  -0.024667   0.000000
   36  O  2 XY    0.000000   0.000000   0.000000   0.000000   0.000000
   37  O  2 XZ    0.000000   0.000000   0.000000   0.000000  -0.035511
   38  O  2 YZ    0.000000   0.000000   0.000000   0.000000   0.000000

                      6          7          8          9         10
                   -0.4966    -0.3947    -0.0282    -0.0282     0.0395
                     E          A1         E          E          A1  
    1  C  1  S    0.000000  -0.141039   0.000000   0.000000   0.031187
    2  C  1  S    0.000000   0.277423   0.000000   0.000000  -0.120515
    3  C  1  X    0.000000   0.000000   0.500559   0.000000   0.000000
    4  C  1  Y    0.319927   0.000000   0.000000   0.500559   0.000000
    5  C  1  Z    0.000000  -0.446290   0.000000   0.000000   0.110101
    6  C  1  S    0.000000   0.522987   0.000000   0.000000   0.247883
    7  C  1  X    0.000000   0.000000   0.526982   0.000000   0.000000
    8  C  1  Y    0.104451   0.000000   0.000000   0.526982   0.000000
    9  C  1  Z    0.000000  -0.143957   0.000000   0.000000   0.399266
   10  C  1  S    0.000000   0.080823   0.000000   0.000000   2.229209
   11  C  1  X    0.000000   0.000000   0.419821   0.000000   0.000000
   12  C  1  Y    0.014948   0.000000   0.000000   0.419821   0.000000
   13  C  1  Z    0.000000  -0.024340   0.000000   0.000000   0.814257
   14  C  1 XX    0.000000   0.015098   0.000000   0.000000   0.000952
   15  C  1 YY    0.000000   0.015098   0.000000   0.000000   0.000952
   16  C  1 ZZ    0.000000  -0.038994   0.000000   0.000000   0.005494
   17  C  1 XY    0.000000   0.000000   0.000000   0.000000   0.000000
   18  C  1 XZ    0.000000   0.000000  -0.015955   0.000000   0.000000
   19  C  1 YZ    0.041761   0.000000   0.000000  -0.015955   0.000000
   20  O  2  S    0.000000   0.014218   0.000000   0.000000   0.029876
   21  O  2  S    0.000000  -0.037469   0.000000   0.000000  -0.111466
   22  O  2  X    0.000000   0.000000  -0.391172   0.000000   0.000000
   23  O  2  Y    0.563944   0.000000   0.000000  -0.391172   0.000000
   24  O  2  Z    0.000000   0.277786   0.000000   0.000000  -0.064231
   25  O  2  S    0.000000  -0.021093   0.000000   0.000000  -0.211530
   26  O  2  X    0.000000   0.000000  -0.344629   0.000000   0.000000
   27  O  2  Y    0.331543   0.000000   0.000000  -0.344629   0.000000
   28  O  2  Z    0.000000   0.118001   0.000000   0.000000   0.060778
   29  O  2  S    0.000000   0.034167   0.000000   0.000000  -1.788008
   30  O  2  X    0.000000   0.000000  -0.274112   0.000000   0.000000
   31  O  2  Y    0.023137   0.000000   0.000000  -0.274112   0.000000
   32  O  2  Z    0.000000   0.018544   0.000000   0.000000   0.393543
   33  O  2 XX    0.000000   0.004907   0.000000   0.000000  -0.004252
   34  O  2 YY    0.000000   0.004907   0.000000   0.000000  -0.004252
   35  O  2 ZZ    0.000000  -0.000434   0.000000   0.000000  -0.019145
   36  O  2 XY    0.000000   0.000000   0.000000   0.000000   0.000000
   37  O  2 XZ    0.000000   0.000000  -0.012086   0.000000   0.000000
   38  O  2 YZ   -0.035511   0.000000   0.000000  -0.012086   0.000000

                     11         12         13         14         15
                    0.0700     0.0822     0.0822     0.1945     0.2235
                     A1         E          E          A1         E   
    1  C  1  S   -0.051539   0.000000   0.000000  -0.062933   0.000000
    2  C  1  S    0.106388   0.000000   0.000000   0.020163   0.000000
    3  C  1  X    0.000000  -0.312364   0.000000   0.000000   0.050071
    4  C  1  Y    0.000000   0.000000  -0.312364   0.000000   0.000000
    5  C  1  Z   -0.073537   0.000000   0.000000  -0.004962   0.000000
    6  C  1  S    0.282798   0.000000   0.000000   1.365765   0.000000
    7  C  1  X    0.000000  -0.438094   0.000000   0.000000  -0.142735
    8  C  1  Y    0.000000   0.000000  -0.438094   0.000000   0.000000
    9  C  1  Z   -0.194504   0.000000   0.000000  -0.070866   0.000000
   10  C  1  S   -0.430757   0.000000   0.000000   0.060946   0.000000
   11  C  1  X    0.000000   1.141861   0.000000   0.000000  -1.125814
   12  C  1  Y    0.000000   0.000000   1.141861   0.000000   0.000000
   13  C  1  Z    1.196982   0.000000   0.000000  -0.640451   0.000000
   14  C  1 XX    0.003846   0.000000   0.000000  -0.031142   0.000000
   15  C  1 YY    0.003846   0.000000   0.000000  -0.031142   0.000000
   16  C  1 ZZ   -0.030794   0.000000   0.000000  -0.011272   0.000000
   17  C  1 XY    0.000000   0.000000   0.000000   0.000000   0.000000
   18  C  1 XZ    0.000000  -0.011592   0.000000   0.000000  -0.003162
   19  C  1 YZ    0.000000   0.000000  -0.011592   0.000000   0.000000
   20  O  2  S    0.021514   0.000000   0.000000   0.018488   0.000000
   21  O  2  S   -0.081528   0.000000   0.000000  -0.012553   0.000000
   22  O  2  X    0.000000   0.052495   0.000000   0.000000  -0.242284
   23  O  2  Y    0.000000   0.000000   0.052495   0.000000   0.000000
   24  O  2  Z    0.019297   0.000000   0.000000  -0.116449   0.000000
   25  O  2  S   -0.024814   0.000000   0.000000  -0.195004   0.000000
   26  O  2  X    0.000000   0.126539   0.000000   0.000000  -0.449792
   27  O  2  Y    0.000000   0.000000   0.126539   0.000000   0.000000
   28  O  2  Z   -0.010929   0.000000   0.000000  -0.201268   0.000000
   29  O  2  S   -0.178300   0.000000   0.000000  -0.483503   0.000000
   30  O  2  X    0.000000  -0.066194   0.000000   0.000000   1.919222
   31  O  2  Y    0.000000   0.000000  -0.066194   0.000000   0.000000
   32  O  2  Z   -0.216390   0.000000   0.000000   1.974409   0.000000
   33  O  2 XX   -0.006429   0.000000   0.000000   0.000820   0.000000
   34  O  2 YY   -0.006429   0.000000   0.000000   0.000820   0.000000
   35  O  2 ZZ    0.003835   0.000000   0.000000   0.052355   0.000000
   36  O  2 XY    0.000000   0.000000   0.000000   0.000000   0.000000
   37  O  2 XZ    0.000000   0.015404   0.000000   0.000000   0.019572
   38  O  2 YZ    0.000000   0.000000   0.015404   0.000000   0.000000

                     16         17         18         19         20
                    0.2235     0.2748     0.4397     0.6571     0.6571
                     E          A1         A1         E          E   
    1  C  1  S    0.000000   0.033686  -0.109704   0.000000   0.000000
    2  C  1  S    0.000000  -0.026002   0.175888   0.000000   0.000000
    3  C  1  X    0.000000   0.000000   0.000000  -1.033074   0.000000
    4  C  1  Y    0.050071   0.000000   0.000000   0.000000  -1.033074
    5  C  1  Z    0.000000   0.092525   0.115870   0.000000   0.000000
    6  C  1  S    0.000000  -1.426126   4.118864   0.000000   0.000000
    7  C  1  X    0.000000   0.000000   0.000000   1.573919   0.000000
    8  C  1  Y   -0.142735   0.000000   0.000000   0.000000   1.573919
    9  C  1  Z    0.000000  -0.055654   2.888862   0.000000   0.000000
   10  C  1  S    0.000000  -2.997048   1.639685   0.000000   0.000000
   11  C  1  X    0.000000   0.000000   0.000000  -0.437399   0.000000
   12  C  1  Y   -1.125814   0.000000   0.000000   0.000000  -0.437399
   13  C  1  Z    0.000000  -1.550982  -0.108465   0.000000   0.000000
   14  C  1 XX    0.000000   0.035643   0.017031   0.000000   0.000000
   15  C  1 YY    0.000000   0.035643   0.017031   0.000000   0.000000
   16  C  1 ZZ    0.000000  -0.043212  -0.025250   0.000000   0.000000
   17  C  1 XY    0.000000   0.000000   0.000000   0.000000   0.000000
   18  C  1 XZ    0.000000   0.000000   0.000000  -0.023336   0.000000
   19  C  1 YZ   -0.003162   0.000000   0.000000   0.000000  -0.023336
   20  O  2  S    0.000000   0.102779   0.068425   0.000000   0.000000
   21  O  2  S    0.000000  -0.098744  -0.026195   0.000000   0.000000
   22  O  2  X    0.000000   0.000000   0.000000   0.084763   0.000000
   23  O  2  Y   -0.242284   0.000000   0.000000   0.000000   0.084763
   24  O  2  Z    0.000000  -0.018428   0.305232   0.000000   0.000000
   25  O  2  S    0.000000  -1.496528  -2.166699   0.000000   0.000000
   26  O  2  X    0.000000   0.000000   0.000000  -0.198311   0.000000
   27  O  2  Y   -0.449792   0.000000   0.000000   0.000000  -0.198311
   28  O  2  Z    0.000000  -0.258648   1.263275   0.000000   0.000000
   29  O  2  S    0.000000   5.698648  -3.856445   0.000000   0.000000
   30  O  2  X    0.000000   0.000000   0.000000  -0.247149   0.000000
   31  O  2  Y    1.919222   0.000000   0.000000   0.000000  -0.247149
   32  O  2  Z    0.000000  -0.721583   1.267815   0.000000   0.000000
   33  O  2 XX    0.000000   0.072691   0.042988   0.000000   0.000000
   34  O  2 YY    0.000000   0.072691   0.042988   0.000000   0.000000
   35  O  2 ZZ    0.000000   0.080395   0.016136   0.000000   0.000000
   36  O  2 XY    0.000000   0.000000   0.000000   0.000000   0.000000
   37  O  2 XZ    0.000000   0.000000   0.000000   0.082046   0.000000
   38  O  2 YZ    0.019572   0.000000   0.000000   0.000000   0.082046

                     21         22         23         24         25
                    0.7703     1.0514     1.1612     1.1612     1.1752
                     A1         A1         E          E          A1  
    1  C  1  S   -0.034487  -0.044811   0.000000   0.000000   0.053081
    2  C  1  S   -0.206853  -1.908295   0.000000   0.000000  -0.727337
    3  C  1  X    0.000000   0.000000  -0.116379   0.000000   0.000000
    4  C  1  Y    0.000000   0.000000   0.000000  -0.116379   0.000000
    5  C  1  Z    1.122333  -0.142730   0.000000   0.000000   0.134966
    6  C  1  S    1.381167   4.151180   0.000000   0.000000   5.425052
    7  C  1  X    0.000000   0.000000  -0.194419   0.000000   0.000000
    8  C  1  Y    0.000000   0.000000   0.000000  -0.194419   0.000000
    9  C  1  Z   -0.645620   0.803296   0.000000   0.000000   2.268998
   10  C  1  S   -0.150099   0.535638   0.000000   0.000000   1.339310
   11  C  1  X    0.000000   0.000000   0.487711   0.000000   0.000000
   12  C  1  Y    0.000000   0.000000   0.000000   0.487711   0.000000
   13  C  1  Z    0.387346   0.048790   0.000000   0.000000   0.486290
   14  C  1 XX    0.023711  -0.038127   0.000000   0.000000  -0.132556
   15  C  1 YY    0.023711  -0.038127   0.000000   0.000000  -0.132556
   16  C  1 ZZ   -0.173609  -0.125775   0.000000   0.000000   0.283994
   17  C  1 XY    0.000000   0.000000   0.000000   0.000000   0.000000
   18  C  1 XZ    0.000000   0.000000  -0.044413   0.000000   0.000000
   19  C  1 YZ    0.000000   0.000000   0.000000  -0.044413   0.000000
   20  O  2  S    0.051552  -0.015446   0.000000   0.000000   0.011698
   21  O  2  S   -0.133048   0.228190   0.000000   0.000000   0.005090
   22  O  2  X    0.000000   0.000000  -0.954016   0.000000   0.000000
   23  O  2  Y    0.000000   0.000000   0.000000  -0.954016   0.000000
   24  O  2  Z    0.289284   0.181065   0.000000   0.000000  -0.814927
   25  O  2  S   -0.288139  -0.777035   0.000000   0.000000  -1.787919
   26  O  2  X    0.000000   0.000000   1.696831   0.000000   0.000000
   27  O  2  Y    0.000000   0.000000   0.000000   1.696831   0.000000
   28  O  2  Z    0.649270  -0.618652   0.000000   0.000000   2.693148
   29  O  2  S   -0.533763  -2.383978   0.000000   0.000000  -4.271019
   30  O  2  X    0.000000   0.000000  -1.108040   0.000000   0.000000
   31  O  2  Y    0.000000   0.000000   0.000000  -1.108040   0.000000
   32  O  2  Z   -0.047850   1.659960   0.000000   0.000000   0.629345
   33  O  2 XX   -0.059206   0.149342   0.000000   0.000000   0.013772
   34  O  2 YY   -0.059206   0.149342   0.000000   0.000000   0.013772
   35  O  2 ZZ    0.180002  -0.099489   0.000000   0.000000  -0.209732
   36  O  2 XY    0.000000   0.000000   0.000000   0.000000   0.000000
   37  O  2 XZ    0.000000   0.000000   0.043053   0.000000   0.000000
   38  O  2 YZ    0.000000   0.000000   0.000000   0.043053   0.000000

                     26         27         28         29         30
                    1.4701     1.4701     1.4950     1.5465     1.5465
                     B1         B2         A1         E          E   
    1  C  1  S    0.000000   0.000000  -0.032690   0.000000   0.000000
    2  C  1  S    0.000000   0.000000  -0.144519   0.000000   0.000000
    3  C  1  X    0.000000   0.000000   0.000000  -0.286435   0.000000
    4  C  1  Y    0.000000   0.000000   0.000000   0.000000  -0.286435
    5  C  1  Z    0.000000   0.000000  -0.057715   0.000000   0.000000
    6  C  1  S    0.000000   0.000000  -2.011020   0.000000   0.000000
    7  C  1  X    0.000000   0.000000   0.000000   0.154339   0.000000
    8  C  1  Y    0.000000   0.000000   0.000000   0.000000   0.154339
    9  C  1  Z    0.000000   0.000000  -1.550008   0.000000   0.000000
   10  C  1  S    0.000000   0.000000   1.106736   0.000000   0.000000
   11  C  1  X    0.000000   0.000000   0.000000  -0.057074   0.000000
   12  C  1  Y    0.000000   0.000000   0.000000   0.000000  -0.057074
   13  C  1  Z    0.000000   0.000000   0.732186   0.000000   0.000000
   14  C  1 XX    0.605944   0.000000   0.090263   0.000000   0.000000
   15  C  1 YY   -0.605944   0.000000   0.090263   0.000000   0.000000
   16  C  1 ZZ    0.000000   0.000000  -0.125745   0.000000   0.000000
   17  C  1 XY    0.000000   0.699684   0.000000   0.000000   0.000000
   18  C  1 XZ    0.000000   0.000000   0.000000   0.627552   0.000000
   19  C  1 YZ    0.000000   0.000000   0.000000   0.000000   0.627552
   20  O  2  S    0.000000   0.000000  -0.096405   0.000000   0.000000
   21  O  2  S    0.000000   0.000000  -1.991522   0.000000   0.000000
   22  O  2  X    0.000000   0.000000   0.000000  -0.157364   0.000000
   23  O  2  Y    0.000000   0.000000   0.000000   0.000000  -0.157364
   24  O  2  Z    0.000000   0.000000   0.004627   0.000000   0.000000
   25  O  2  S    0.000000   0.000000   5.957089   0.000000   0.000000
   26  O  2  X    0.000000   0.000000   0.000000  -0.124054   0.000000
   27  O  2  Y    0.000000   0.000000   0.000000   0.000000  -0.124054
   28  O  2  Z    0.000000   0.000000  -0.979771   0.000000   0.000000
   29  O  2  S    0.000000   0.000000  -2.261364   0.000000   0.000000
   30  O  2  X    0.000000   0.000000   0.000000   0.081579   0.000000
   31  O  2  Y    0.000000   0.000000   0.000000   0.000000   0.081579
   32  O  2  Z    0.000000   0.000000  -0.078305   0.000000   0.000000
   33  O  2 XX    0.528176   0.000000  -0.364634   0.000000   0.000000
   34  O  2 YY   -0.528176   0.000000  -0.364634   0.000000   0.000000
   35  O  2 ZZ    0.000000   0.000000  -0.620542   0.000000   0.000000
   36  O  2 XY    0.000000   0.609885   0.000000   0.000000   0.000000
   37  O  2 XZ    0.000000   0.000000   0.000000  -0.580154   0.000000
   38  O  2 YZ    0.000000   0.000000   0.000000   0.000000  -0.580154

                     31         32         33         34         35
                    1.9457     1.9457     2.5010     2.6242     2.6242
                     B1         B2         A1         E          E   
    1  C  1  S    0.000000   0.000000  -0.120471   0.000000   0.000000
    2  C  1  S    0.000000   0.000000  -0.472689   0.000000   0.000000
    3  C  1  X    0.000000   0.000000   0.000000   0.362149   0.000000
    4  C  1  Y    0.000000   0.000000   0.000000   0.000000   0.362149
    5  C  1  Z    0.000000   0.000000   0.094053   0.000000   0.000000
    6  C  1  S    0.000000   0.000000   1.742428   0.000000   0.000000
    7  C  1  X    0.000000   0.000000   0.000000   0.345923   0.000000
    8  C  1  Y    0.000000   0.000000   0.000000   0.000000   0.345923
    9  C  1  Z    0.000000   0.000000   0.808689   0.000000   0.000000
   10  C  1  S    0.000000   0.000000   0.500762   0.000000   0.000000
   11  C  1  X    0.000000   0.000000   0.000000  -0.132625   0.000000
   12  C  1  Y    0.000000   0.000000   0.000000   0.000000  -0.132625
   13  C  1  Z    0.000000   0.000000   0.041655   0.000000   0.000000
   14  C  1 XX   -0.634911   0.000000  -0.651585   0.000000   0.000000
   15  C  1 YY    0.634911   0.000000  -0.651585   0.000000   0.000000
   16  C  1 ZZ    0.000000   0.000000   1.088153   0.000000   0.000000
   17  C  1 XY    0.000000  -0.733132   0.000000   0.000000   0.000000
   18  C  1 XZ    0.000000   0.000000   0.000000   1.087831   0.000000
   19  C  1 YZ    0.000000   0.000000   0.000000   0.000000   1.087831
   20  O  2  S    0.000000   0.000000  -0.015715   0.000000   0.000000
   21  O  2  S    0.000000   0.000000  -0.830506   0.000000   0.000000
   22  O  2  X    0.000000   0.000000   0.000000  -0.045585   0.000000
   23  O  2  Y    0.000000   0.000000   0.000000   0.000000  -0.045585
   24  O  2  Z    0.000000   0.000000   0.672569   0.000000   0.000000
   25  O  2  S    0.000000   0.000000   0.283110   0.000000   0.000000
   26  O  2  X    0.000000   0.000000   0.000000  -0.656500   0.000000
   27  O  2  Y    0.000000   0.000000   0.000000   0.000000  -0.656500
   28  O  2  Z    0.000000   0.000000  -0.267345   0.000000   0.000000
   29  O  2  S    0.000000   0.000000  -1.433983   0.000000   0.000000
   30  O  2  X    0.000000   0.000000   0.000000   0.153755   0.000000
   31  O  2  Y    0.000000   0.000000   0.000000   0.000000   0.153755
   32  O  2  Z    0.000000   0.000000   0.578510   0.000000   0.000000
   33  O  2 XX    0.700935   0.000000  -0.257703   0.000000   0.000000
   34  O  2 YY   -0.700935   0.000000  -0.257703   0.000000   0.000000
   35  O  2 ZZ    0.000000   0.000000   0.132158   0.000000   0.000000
   36  O  2 XY    0.000000   0.809371   0.000000   0.000000   0.000000
   37  O  2 XZ    0.000000   0.000000   0.000000   1.101424   0.000000
   38  O  2 YZ    0.000000   0.000000   0.000000   0.000000   1.101424

                     36         37         38
                    3.0761     4.0310     4.1889
                     A1         A1         A1  
    1  C  1  S   -0.130037   0.181622  -0.473171
    2  C  1  S   -1.786447  -0.941290   2.529985
    3  C  1  X    0.000000   0.000000   0.000000
    4  C  1  Y    0.000000   0.000000   0.000000
    5  C  1  Z   -1.620913   0.534219  -0.161058
    6  C  1  S   -2.348323  -1.473222   1.945085
    7  C  1  X    0.000000   0.000000   0.000000
    8  C  1  Y    0.000000   0.000000   0.000000
    9  C  1  Z   -1.345350  -0.701831   0.057950
   10  C  1  S   -0.112081   0.815406   0.660238
   11  C  1  X    0.000000   0.000000   0.000000
   12  C  1  Y    0.000000   0.000000   0.000000
   13  C  1  Z    0.040706   0.452547   0.337360
   14  C  1 XX    0.381914   0.590802  -1.712164
   15  C  1 YY    0.381914   0.590802  -1.712164
   16  C  1 ZZ   -0.835676   1.101563  -1.830451
   17  C  1 XY    0.000000   0.000000   0.000000
   18  C  1 XZ    0.000000   0.000000   0.000000
   19  C  1 YZ    0.000000   0.000000   0.000000
   20  O  2  S   -0.105732  -0.532918  -0.219259
   21  O  2  S   -0.435404  -0.506957  -0.058651
   22  O  2  X    0.000000   0.000000   0.000000
   23  O  2  Y    0.000000   0.000000   0.000000
   24  O  2  Z   -0.450548   0.370057  -0.175010
   25  O  2  S    3.973966   5.725287   2.461954
   26  O  2  X    0.000000   0.000000   0.000000
   27  O  2  Y    0.000000   0.000000   0.000000
   28  O  2  Z   -2.460885  -0.157394  -0.265279
   29  O  2  S    0.553678  -1.717671  -2.222914
   30  O  2  X    0.000000   0.000000   0.000000
   31  O  2  Y    0.000000   0.000000   0.000000
   32  O  2  Z    0.040689  -0.222238   0.610632
   33  O  2 XX   -0.889722  -1.718443  -0.761253
   34  O  2 YY   -0.889722  -1.718443  -0.761253
   35  O  2 ZZ    1.473645  -2.012008  -0.606781
   36  O  2 XY    0.000000   0.000000   0.000000
   37  O  2 XZ    0.000000   0.000000   0.000000
   38  O  2 YZ    0.000000   0.000000   0.000000
 ...... END OF RHF CALCULATION ......
 STEP CPU TIME =     1.45 TOTAL CPU TIME =        1.5 (    0.0 MIN)
 TOTAL WALL CLOCK TIME=        1.6 SECONDS, CPU UTILIZATION IS  91.46%

     ---------------------------------------------------------------------
     PROPERTIES FOR THE PBE0     DFT FUNCTIONAL (RHF  TYPE) DENSITY MATRIX
     ---------------------------------------------------------------------

          -----------------
          ENERGY COMPONENTS
          -----------------

         WAVEFUNCTION NORMALIZATION =       1.0000000000

                ONE ELECTRON ENERGY =    -198.1509985371
                TWO ELECTRON ENERGY =      62.4514489009
           NUCLEAR REPULSION ENERGY =      22.5117346394
                                      ------------------
                       TOTAL ENERGY =    -113.1878149968

 ELECTRON-ELECTRON POTENTIAL ENERGY =      62.4514489009
  NUCLEUS-ELECTRON POTENTIAL ENERGY =    -310.4364690583
   NUCLEUS-NUCLEUS POTENTIAL ENERGY =      22.5117346394
                                      ------------------
             TOTAL POTENTIAL ENERGY =    -225.4732855180
               TOTAL KINETIC ENERGY =     112.2854705212
                 VIRIAL RATIO (V/T) =       2.0080361642

          ---------------------------------------
          MULLIKEN AND LOWDIN POPULATION ANALYSES
          ---------------------------------------

     ATOMIC MULLIKEN POPULATION IN EACH MOLECULAR ORBITAL

                      1          2          3          4          5

                  2.000000   2.000000   2.000000   2.000000   2.000000

    1            -0.000236   1.999896   0.583390   0.428222   0.524762
    2             2.000236   0.000104   1.416610   1.571778   1.475238

                      6          7

                  2.000000   2.000000

    1             0.524762   1.808805
    2             1.475238   0.191195

               ----- POPULATIONS IN EACH AO -----
                             MULLIKEN      LOWDIN
              1  C  1  S      1.99444     1.97439
              2  C  1  S      0.83932     0.44750
              3  C  1  X      0.36576     0.31917
              4  C  1  Y      0.36576     0.31917
              5  C  1  Z      0.84185     0.77892
              6  C  1  S      0.93392     0.43107
              7  C  1  X      0.12697     0.18175
              8  C  1  Y      0.12697     0.18175
              9  C  1  Z      0.09956     0.30256
             10  C  1  S      0.10142     0.15150
             11  C  1  X      0.00888     0.01671
             12  C  1  Y      0.00888     0.01671
             13  C  1  Z      0.01801     0.02761
             14  C  1 XX     -0.01085     0.16584
             15  C  1 YY     -0.01085     0.16584
             16  C  1 ZZ      0.01324     0.22694
             17  C  1 XY      0.00000     0.00000
             18  C  1 XZ      0.02315     0.04052
             19  C  1 YZ      0.02315     0.04052
             20  O  2  S      1.99295     1.97621
             21  O  2  S      0.94332     0.72617
             22  O  2  X      0.90294     0.83784
             23  O  2  Y      0.90294     0.83784
             24  O  2  Z      1.03916     0.96616
             25  O  2  S      0.91355     0.40479
             26  O  2  X      0.53717     0.50896
             27  O  2  Y      0.53717     0.50896
             28  O  2  Z      0.30947     0.44604
             29  O  2  S     -0.00878     0.17660
             30  O  2  X      0.02303     0.08140
             31  O  2  Y      0.02303     0.08140
             32  O  2  Z     -0.01155     0.13541
             33  O  2 XX     -0.00202     0.15499
             34  O  2 YY     -0.00202     0.15499
             35  O  2 ZZ      0.00585     0.18648
             36  O  2 XY      0.00000     0.00000
             37  O  2 XZ      0.01210     0.01365
             38  O  2 YZ      0.01210     0.01365

          ----- MULLIKEN ATOMIC OVERLAP POPULATIONS -----
          (OFF-DIAGONAL ELEMENTS NEED TO BE MULTIPLIED BY 2)

             1           2

    1    5.3390489
    2    0.5305517   7.5998477

          TOTAL MULLIKEN AND LOWDIN ATOMIC POPULATIONS
       ATOM         MULL.POP.    CHARGE          LOW.POP.     CHARGE
    1 C             5.869601    0.130399         5.788456    0.211544
    2 O             8.130399   -0.130399         8.211544   -0.211544

          -------------------------------
          BOND ORDER AND VALENCE ANALYSIS     BOND ORDER THRESHOLD=0.050
          -------------------------------

                   BOND                       BOND                       BOND
  ATOM PAIR DIST  ORDER      ATOM PAIR DIST  ORDER      ATOM PAIR DIST  ORDER
    1   2  1.128  2.334

                       TOTAL       BONDED        FREE
      ATOM            VALENCE     VALENCE     VALENCE
    1 C                 2.334       2.334       0.000
    2 O                 2.334       2.334       0.000

          ---------------------
          ELECTROSTATIC MOMENTS
          ---------------------

 POINT   1           X           Y           Z (BOHR)    CHARGE
                 0.000000    0.000000    1.218246        0.00 (A.U.)
         DX          DY          DZ         /D/  (DEBYE)
     0.000000    0.000000    0.074161    0.074161
 ...... END OF PROPERTY EVALUATION ......
 STEP CPU TIME =     0.01 TOTAL CPU TIME =        1.5 (    0.0 MIN)
 TOTAL WALL CLOCK TIME=        1.7 SECONDS, CPU UTILIZATION IS  89.88%

 -----------------------------------------------------------------------
                    TDDFT CALCULATION FOR SCFTYP=RHF 
                          CODED BY MAHITO CHIBA
 NATIONAL INSTITUTE OF ADVANCED INDUSTRIAL SCIENCE AND TECHNOLOGY, JAPAN
 -----------------------------------------------------------------------

 REGENERATING AO INTEGRAL LIST IN C1 SYMMETRY FOR TDDFT ITERATIONS...

          --------------------
          2 ELECTRON INTEGRALS
          --------------------

 THE -PK- OPTION IS OFF, THE INTEGRALS ARE NOT IN SUPERMATRIX FORM.
 STORING   15000 INTEGRALS/RECORD ON DISK, USING 12 BYTES/INTEGRAL.
 TWO ELECTRON INTEGRAL EVALUATION REQUIRES   90451 WORDS OF MEMORY.
 II,JST,KST,LST =  1  1  1  1 NREC =         1 INTLOC =    1
 II,JST,KST,LST =  2  1  1  1 NREC =         1 INTLOC =    2
 II,JST,KST,LST =  3  1  1  1 NREC =         1 INTLOC =   34
 II,JST,KST,LST =  4  1  1  1 NREC =         1 INTLOC =  214
 II,JST,KST,LST =  5  1  1  1 NREC =         1 INTLOC =  776
 II,JST,KST,LST =  6  1  1  1 NREC =         1 INTLOC = 2864
 II,JST,KST,LST =  7  1  1  1 NREC =         1 INTLOC = 4164
 II,JST,KST,LST =  8  1  1  1 NREC =         1 INTLOC =10804
 II,JST,KST,LST =  9  1  1  1 NREC =         2 INTLOC = 6472
 II,JST,KST,LST = 10  1  1  1 NREC =         3 INTLOC = 7422
 TOTAL NUMBER OF NONZERO TWO-ELECTRON INTEGRALS =               72578
          5 INTEGRAL RECORDS WERE STORED ON DISK FILE  8.
  ...... END OF TWO-ELECTRON INTEGRALS .....
 STEP CPU TIME =     0.02 TOTAL CPU TIME =        1.5 (    0.0 MIN)
 TOTAL WALL CLOCK TIME=        1.7 SECONDS, CPU UTILIZATION IS  88.95%
  
 -TDDFT RUNTIME PARAMETERS-
    TRIPLET  = F
    NONEQ    = T
    NSTATE   =                     3
    IROOT    =                     1
    NTRIAL   =                     5
    MAXVEC   =                    50
    ILENG    =                   200
    MAXGRD   =                 10383
    NRAD     =                    48
    NLEB     =                   110
 COMPUTING GAS PHASE SPECTRUM
  
 FOR AN EULER-MACLAURIN QUADRATURE USING  48 RADIAL POINTS:
 SMALLEST GAUSSIAN PRIMITIVE EXPONENT=        0.0438000000 OF TYPE -P-
 ON ATOM NUMBER   1 HAS RADIAL NORMALIZATION=  0.999996
  LARGEST GAUSSIAN PRIMITIVE EXPONENT=     5484.6716600000 OF TYPE -S-
 ON ATOM NUMBER   2 HAS RADIAL NORMALIZATION=  1.000000
  
 MEM1  =      267019 MEM2  =        5129 MEMGRID=      139080
 MEMPCM=           0 MEMEFP=           0
 TOTAL MEMORY REQUIRED FOR TD-DFT ITERATIONS IS      411229 WORDS.

 INITIAL VECTORS / MXVEC                      5 /                   150
 ITERATION #                      1
    CURRENT VECTORS    1 TO   5 (   5 VECTORS)
    STATE NUMBER   1  ENERGY =    8.881246 EV
    STATE NUMBER   2  ENERGY =    8.881246 EV
    STATE NUMBER   3  ENERGY =   10.831429 EV
    MAX ERROR =  4.209E-02 / 1.000E-07
 ITERATION #                      2
    CURRENT VECTORS    6 TO  11 (   6 VECTORS)
    STATE NUMBER   1  ENERGY =    8.508111 EV
    STATE NUMBER   2  ENERGY =    8.508111 EV
    STATE NUMBER   3  ENERGY =   10.742171 EV
    MAX ERROR =  2.926E-03 / 1.000E-07
 ITERATION #                      3
    CURRENT VECTORS   12 TO  17 (   6 VECTORS)
    STATE NUMBER   1  ENERGY =    8.475288 EV
    STATE NUMBER   2  ENERGY =    8.475288 EV
    STATE NUMBER   3  ENERGY =   10.351270 EV
    MAX ERROR =  5.816E-03 / 1.000E-07
 ITERATION #                      4
    CURRENT VECTORS   18 TO  23 (   6 VECTORS)
    STATE NUMBER   1  ENERGY =    8.474215 EV
    STATE NUMBER   2  ENERGY =    8.474215 EV
    STATE NUMBER   3  ENERGY =   10.233599 EV
    MAX ERROR =  2.904E-04 / 1.000E-07
 ITERATION #                      5
    CURRENT VECTORS   24 TO  29 (   6 VECTORS)
    STATE NUMBER   1  ENERGY =    8.474147 EV
    STATE NUMBER   2  ENERGY =    8.474147 EV
    STATE NUMBER   3  ENERGY =   10.230951 EV
    MAX ERROR =  9.412E-06 / 1.000E-07
 ITERATION #                      6
    CURRENT VECTORS   30 TO  35 (   6 VECTORS)
    STATE NUMBER   1  ENERGY =    8.474141 EV
    STATE NUMBER   2  ENERGY =    8.474141 EV
    STATE NUMBER   3  ENERGY =   10.230834 EV
    MAX ERROR =  1.212E-06 / 1.000E-07
 ITERATION #                      7
    CURRENT VECTORS   36 TO  37 (   2 VECTORS)
    STATE NUMBER   1  ENERGY =    8.474141 EV
    STATE NUMBER   2  ENERGY =    8.474141 EV
    STATE NUMBER   3  ENERGY =   10.230820 EV
    MAX ERROR =  1.183E-07 / 1.000E-07
 ITERATION #                      8
    CURRENT VECTORS   38 TO  39 (   2 VECTORS)
    STATE NUMBER   1  ENERGY =    8.474141 EV
    STATE NUMBER   2  ENERGY =    8.474141 EV
    STATE NUMBER   3  ENERGY =   10.230819 EV
    MAX ERROR =  7.234E-08 / 1.000E-07
  
   ---------------------------------  
     R-TDDFT CALCULATION CONVERGED
   ---------------------------------  
 NUMBER OF USED VECTORS / MAX =  39 / 150
 NUMBER OF ITERATIONS   / MAX =   8 / 100
 NUMBER OF SINGLE EXCITATIONS =   217
 NUMBER OF ATOMIC ORBITALS    =  38
 NUMBER OF ELECTRONS          =          13.9998099

          -------------------
          SINGLET EXCITATIONS
          -------------------

 THIS IS A NON-ABELIAN POINT GROUP, AS A RESULT,
 SOME STATE SYMMETRY LABELS MAY NOT BE CORRECTLY PRINTED BELOW


 STATE #   1  ENERGY =    8.474141 EV
 OSCILLATOR STRENGTH =    0.093580
 LAMBDA DIAGNOSTIC   =    0.700 (RYDBERG/CHARGE TRANSFER CHARACTER)
 SYMMETRY OF STATE   =    E   
                 EXCITATION  DE-EXCITATION
     OCC     VIR  AMPLITUDE      AMPLITUDE
      I       A     X(I->A)        Y(A->I)
     ---     ---   --------       --------
      4       8    0.124236       0.019319
      7       8    0.898555      -0.069641
      4       9   -0.057659      -0.008966
      7       9   -0.417026       0.032321
      4      12    0.038104       0.010435
      7      12    0.038402      -0.022722

 STATE #   2  ENERGY =    8.474141 EV
 OSCILLATOR STRENGTH =    0.093580
 LAMBDA DIAGNOSTIC   =    0.700 (RYDBERG/CHARGE TRANSFER CHARACTER)
 SYMMETRY OF STATE   =    E   
                 EXCITATION  DE-EXCITATION
     OCC     VIR  AMPLITUDE      AMPLITUDE
      I       A     X(I->A)        Y(A->I)
     ---     ---   --------       --------
      4       8    0.057659       0.008966
      7       8    0.417026      -0.032321
      4       9    0.124236       0.019319
      7       9    0.898555      -0.069641
      4      13    0.038104       0.010435
      7      13    0.038402      -0.022722

 STATE #   3  ENERGY =   10.230819 EV
 OSCILLATOR STRENGTH =    0.000000
 LAMBDA DIAGNOSTIC   =    0.765 (RYDBERG/CHARGE TRANSFER CHARACTER)
 SYMMETRY OF STATE   =    A1  
                 EXCITATION  DE-EXCITATION
     OCC     VIR  AMPLITUDE      AMPLITUDE
      I       A     X(I->A)        Y(A->I)
     ---     ---   --------       --------
      5       8   -0.701784      -0.005179
      6       9    0.701778       0.005180
      5      12   -0.081506      -0.001285
      6      13    0.081506       0.001276

 THIS IS A NON-ABELIAN POINT GROUP, AS A RESULT,
 SOME STATE SYMMETRY LABELS MAY NOT BE CORRECTLY PRINTED BELOW


                          SUMMARY OF TDDFT RESULTS

   STATE             ENERGY     EXCITATION  TRANSITION DIPOLE, A.U.  OSCILLATOR
                    HARTREE          EV         X       Y       Z     STRENGTH
   0  A1        -113.1878149968    0.000
   1  E         -112.8763960308    8.474     0.6090 -0.2826  0.0000    0.094
   2  E         -112.8763960308    8.474     0.2826  0.6090  0.0000    0.094
   3  A1        -112.8118393001   10.231     0.0000  0.0000  0.0000    0.000
  
 SELECTING EXCITED STATE IROOT=   1 AT E=     -112.8763960308
 AS THE STATE OF INTEREST.

 ..... DONE WITH TD-DFT EXCITATION ENERGIES .....
 STEP CPU TIME =     2.80 TOTAL CPU TIME =        4.3 (    0.1 MIN)
 TOTAL WALL CLOCK TIME=        4.6 SECONDS, CPU UTILIZATION IS  94.96%

 -----------------------------------------------------------------------
                   TD-DFT ENERGY GRADIENT CALCULATION
                   CODED BY MAHITO CHIBA (AIST, JAPAN)
 -----------------------------------------------------------------------

    -------------------------
       START Z-VECTOR LOOP
    -------------------------
 INITIAL ERROR =  3.183E-02, MUST CONVERGE TO 1.000E-10
 ITER# 1 ERROR =  7.823E-03
 ITER# 2 ERROR =  2.343E-04
 ITER# 3 ERROR =  8.480E-06
 ITER# 4 ERROR =  1.683E-07
 ITER# 5 ERROR =  3.611E-09
 ITER# 6 ERROR =  3.291E-11
    -------------------------
        Z-VECTOR CONVERGED          
    -------------------------
 MAXIMUM MEMORY DURING TDDFT RESPONSES=    214568 WORDS.

 TDDFT NATURAL ORBITAL OCCUPATION NUMBERS FOR EXCITED STATE    1 ARE
  2.0006 2.0005 2.0000 2.0000 1.9999 1.9970 1.0086 0.9963 0.0023 0.0015
  0.0004 0.0004 0.0001 0.0000 0.0000 0.0000 0.0000 0.0000 0.0000 0.0000
  0.0000 0.0000 0.0000 0.0000 0.0000 0.0000 0.0000 0.0000 0.0000 0.0000
  0.0000 0.0000 0.0000 0.0000-0.0001-0.0001-0.0009-0.0065
 THERE ARE    13.0066 ELECTRONS IN PRINCIPAL TDDFT NATURAL ORBITALS.
 THERE ARE     0.9934 ELECTRONS IN SECONDARY TDDFT NATURAL ORBITALS.

          ----------------------
          TDDFT NATURAL ORBITALS
          ----------------------

                      1          2          3          4          5

                    2.0006     2.0005     2.0000     2.0000     1.9999

    1  C  1  S    0.000000   0.000000  -0.086376  -0.996710   0.010074
    2  C  1  S    0.000000   0.000000  -0.002631  -0.027036   0.093519
    3  C  1  X   -0.324068  -0.141517   0.000000   0.000000   0.000000
    4  C  1  Y    0.150163  -0.305468   0.000000   0.000000   0.000000
    5  C  1  Z    0.000000   0.000000   0.001266   0.013987   0.168592
    6  C  1  S    0.000000   0.000000   0.002677   0.021414  -0.048832
    7  C  1  X   -0.115188  -0.046305   0.000000   0.000000   0.000000
    8  C  1  Y    0.053380  -0.099963   0.000000   0.000000   0.000000
    9  C  1  Z    0.000000   0.000000   0.000980   0.000558  -0.014098
   10  C  1  S    0.000000   0.000000  -0.001424   0.003541   0.016459
   11  C  1  X   -0.028982  -0.006654   0.000000   0.000000   0.000000
   12  C  1  Y    0.013439  -0.014383   0.000000   0.000000   0.000000
   13  C  1  Z    0.000000   0.000000  -0.000811   0.002116   0.019326
   14  C  1 XX    0.000000   0.000000   0.000670   0.006624  -0.016807
   15  C  1 YY    0.000000   0.000000   0.000676   0.006777  -0.015963
   16  C  1 ZZ    0.000000   0.000000   0.001780   0.009400   0.027655
   17  C  1 XY    0.000000   0.000000   0.000003   0.000104   0.000576
   18  C  1 XZ   -0.034810  -0.016458   0.000000   0.000000   0.000000
   19  C  1 YZ    0.016128  -0.035521   0.000000   0.000000   0.000000
   20  O  2  S    0.000000   0.000000  -0.989982   0.071847  -0.231676
   21  O  2  S    0.000000   0.000000  -0.023238   0.033040   0.513542
   22  O  2  X   -0.497279  -0.235248   0.000000   0.000000   0.000000
   23  O  2  Y    0.230393  -0.507720   0.000000   0.000000   0.000000
   24  O  2  Z    0.000000   0.000000   0.000065  -0.015602   0.010294
   25  O  2  S    0.000000   0.000000  -0.012233   0.026299   0.499149
   26  O  2  X   -0.276902  -0.135711   0.000000   0.000000   0.000000
   27  O  2  Y    0.128283  -0.292881   0.000000   0.000000   0.000000
   28  O  2  Z    0.000000   0.000000  -0.000480  -0.004001   0.042919
   29  O  2  S    0.000000   0.000000   0.003432  -0.012318  -0.026431
   30  O  2  X   -0.009658  -0.007710   0.000000   0.000000   0.000000
   31  O  2  Y    0.004471  -0.016635   0.000000   0.000000   0.000000
   32  O  2  Z    0.000000   0.000000   0.000340   0.003607   0.001166
   33  O  2 XX    0.000000   0.000000   0.007797  -0.001505  -0.005173
   34  O  2 YY    0.000000   0.000000   0.007817  -0.001319  -0.002249
   35  O  2 ZZ    0.000000   0.000000   0.007425   0.000313   0.002976
   36  O  2 XY    0.000000   0.000000   0.000014   0.000128   0.001997
   37  O  2 XZ    0.030658   0.015376   0.000000   0.000000   0.000000
   38  O  2 YZ   -0.014203   0.033183   0.000000   0.000000   0.000000

                      6          7          8          9         10

                    1.9970     1.0086     0.9963     0.0023     0.0015

    1  C  1  S    0.152932   0.000000   0.117913   0.000000  -0.090574
    2  C  1  S   -0.403110   0.000000  -0.245538   0.000000   0.254509
    3  C  1  X    0.000000   0.472252   0.000000   0.476242   0.000000
    4  C  1  Y    0.000000  -0.219176   0.000000  -0.221027   0.000000
    5  C  1  Z   -0.127283   0.000000   0.507150   0.000000  -0.219363
    6  C  1  S   -0.350590   0.000000  -0.351742   0.000000   0.220476
    7  C  1  X    0.000000   0.458878   0.000000  -0.074666   0.000000
    8  C  1  Y    0.000000  -0.212969   0.000000   0.034648   0.000000
    9  C  1  Z    0.009819   0.000000   0.230187   0.000000   0.459489
   10  C  1  S   -0.015169   0.000000  -0.042998   0.000000  -0.726937
   11  C  1  X    0.000000   0.319103   0.000000  -1.049826   0.000000
   12  C  1  Y    0.000000  -0.148098   0.000000   0.487227   0.000000
   13  C  1  Z    0.001874   0.000000   0.023595   0.000000   0.310842
   14  C  1 XX    0.021344   0.000000   0.014355   0.000000   0.192439
   15  C  1 YY    0.018535   0.000000  -0.014510   0.000000  -0.117564
   16  C  1 ZZ   -0.010850   0.000000   0.004222   0.000000   0.063025
   17  C  1 XY   -0.001919   0.000000  -0.019719   0.000000  -0.211677
   18  C  1 XZ    0.000000   0.004223   0.000000  -0.131988   0.000000
   19  C  1 YZ    0.000000  -0.001960   0.000000   0.061259   0.000000
   20  O  2  S   -0.032433   0.000000   0.003692   0.000000   0.036675
   21  O  2  S    0.087704   0.000000   0.018046   0.000000  -0.411815
   22  O  2  X    0.000000  -0.399678   0.000000  -0.144482   0.000000
   23  O  2  Y    0.000000   0.185493   0.000000   0.067054   0.000000
   24  O  2  Z    0.478677   0.000000  -0.336392   0.000000   0.231067
   25  O  2  S    0.272585   0.000000  -0.171614   0.000000   0.034551
   26  O  2  X    0.000000  -0.332115   0.000000   0.053255   0.000000
   27  O  2  Y    0.000000   0.154137   0.000000  -0.024717   0.000000
   28  O  2  Z    0.175806   0.000000  -0.090623   0.000000  -0.216674
   29  O  2  S    0.068049   0.000000  -0.060221   0.000000   0.298382
   30  O  2  X    0.000000  -0.213153   0.000000   0.377223   0.000000
   31  O  2  Y    0.000000   0.098926   0.000000  -0.175062   0.000000
   32  O  2  Z   -0.000550   0.000000  -0.020895   0.000000   0.179705
   33  O  2 XX    0.008960   0.000000  -0.000154   0.000000  -0.030059
   34  O  2 YY    0.008736   0.000000  -0.001235   0.000000  -0.090308
   35  O  2 ZZ   -0.024735   0.000000   0.014348   0.000000  -0.022479
   36  O  2 XY   -0.000152   0.000000  -0.000738   0.000000  -0.041046
   37  O  2 XZ    0.000000  -0.008989   0.000000  -0.007264   0.000000
   38  O  2 YZ    0.000000   0.004172   0.000000   0.003367   0.000000

                     11         12         13         14         15

                    0.0004     0.0004     0.0001     0.0000     0.0000

    1  C  1  S    0.000000   0.000004   0.071100   0.000000   0.000000
    2  C  1  S    0.000000  -0.000001  -0.029213   0.000000   0.000000
    3  C  1  X   -0.270943   0.000000   0.000000   0.211187  -0.579328
    4  C  1  Y    0.125725   0.000000   0.000000  -0.097994   0.268781
    5  C  1  Z    0.000000   0.000045  -0.399685   0.000000   0.000000
    6  C  1  S    0.000000   0.000010   0.878912   0.000000   0.000001
    7  C  1  X    0.320122   0.000000   0.000000  -1.189724   0.756686
    8  C  1  Y   -0.148597   0.000000   0.000000   0.552188  -0.350929
    9  C  1  Z    0.000000  -0.000017   0.582517   0.000000   0.000001
   10  C  1  S    0.000000   0.000070   0.047963   0.000000   0.000000
   11  C  1  X   -0.127056   0.000000   0.000000   0.383456  -0.548312
   12  C  1  Y    0.058948   0.000000   0.000000  -0.177941   0.254766
   13  C  1  Z    0.000000  -0.000030   0.419559   0.000000   0.000000
   14  C  1 XX    0.000000   0.642584  -0.159005   0.000000   0.000000
   15  C  1 YY    0.000000  -0.642580   0.135668   0.000000   0.000000
   16  C  1 ZZ    0.000000  -0.000011  -0.352507   0.000000   0.000000
   17  C  1 XY    0.000000   0.627191   0.201357   0.000000   0.000000
   18  C  1 XZ   -0.865723   0.000000   0.000000  -0.656509  -0.140633
   19  C  1 YZ    0.401800   0.000000   0.000000   0.304678   0.065157
   20  O  2  S    0.000000  -0.000002   0.039756   0.000000   0.000000
   21  O  2  S    0.000000   0.000036   0.600242   0.000000   0.000000
   22  O  2  X    0.261642   0.000000   0.000000  -0.155856   0.441732
   23  O  2  Y   -0.121430   0.000000   0.000000   0.072336  -0.204904
   24  O  2  Z    0.000000   0.000002  -0.870416   0.000000   0.000000
   25  O  2  S    0.000000  -0.000030  -1.722506   0.000000  -0.000001
   26  O  2  X    0.011266   0.000000   0.000000   0.627063  -0.681668
   27  O  2  Y   -0.005218   0.000000   0.000000  -0.291034   0.316423
   28  O  2  Z    0.000000   0.000037   0.862251   0.000000   0.000001
   29  O  2  S    0.000000  -0.000053   0.390232   0.000000   0.000000
   30  O  2  X    0.048246   0.000000   0.000000   0.298454   0.302654
   31  O  2  Y   -0.022352   0.000000   0.000000  -0.138561  -0.140973
   32  O  2  Z    0.000000  -0.000011  -0.175846   0.000000  -0.000001
   33  O  2 XX    0.000000   0.083959   0.182900   0.000000   0.000000
   34  O  2 YY    0.000000  -0.083963   0.182244   0.000000   0.000000
   35  O  2 ZZ    0.000000   0.000009   0.000690   0.000000   0.000000
   36  O  2 XY    0.000000   0.081794  -0.000567   0.000000   0.000000
   37  O  2 XZ    0.045168   0.000000   0.000000  -0.816110  -0.713141
   38  O  2 YZ   -0.020974   0.000000   0.000000   0.378777   0.331187

                     16         17         18         19         20

                    0.0000     0.0000     0.0000     0.0000     0.0000

    1  C  1  S   -0.000001  -0.000003   0.204261   0.123249   0.049265
    2  C  1  S    0.000003  -0.000267  -0.732310  -0.748822  -1.312752
    3  C  1  X    0.236599   0.000000  -0.011057  -0.117514   0.070064
    4  C  1  Y   -0.109971   0.000000  -0.023880  -0.253202   0.150960
    5  C  1  Z    0.000000  -0.000015  -0.090685  -0.073741  -0.234352
    6  C  1  S    0.000004  -0.000194  -3.704351  -1.205973   2.285736
    7  C  1  X   -0.124898   0.000000   0.122315   0.185055   0.011284
    8  C  1  Y    0.058454   0.000000   0.263511   0.398734   0.024310
    9  C  1  Z    0.000000  -0.000154  -1.165646  -0.303598   1.123585
   10  C  1  S   -0.000001  -0.000142   0.328873  -0.184765  -0.113229
   11  C  1  X   -0.888861   0.000000  -0.523018  -0.009281  -0.082688
   12  C  1  Y    0.413080   0.000000  -1.126408  -0.020011  -0.178129
   13  C  1  Z    0.000000  -0.000044   0.040592   0.117705  -0.167118
   14  C  1 XX   -0.000002   0.190714   0.859875   0.413742   0.264697
   15  C  1 YY   -0.000002  -0.190680   0.718635   0.870324   0.279016
   16  C  1 ZZ   -0.000003   0.000129   0.849518   0.210244   0.437140
   17  C  1 XY    0.000000   0.186107  -0.096468   0.311868   0.009752
   18  C  1 XZ    0.286688   0.000000  -0.001645  -0.044647   0.110606
   19  C  1 YZ   -0.133267   0.000000  -0.003656  -0.096196   0.238311
   20  O  2  S    0.000000  -0.000002  -0.059501   0.092617   0.240247
   21  O  2  S    0.000000  -0.000276  -0.595830  -0.479583   0.430041
   22  O  2  X    0.260066   0.000000   0.021798  -0.167842   0.204019
   23  O  2  Y   -0.120497   0.000000   0.046634  -0.361635   0.439571
   24  O  2  Z    0.000000   0.000158   0.032942  -0.022208  -0.090273
   25  O  2  S    0.000001   0.000535   2.388146   0.490808  -3.776441
   26  O  2  X   -1.237800   0.000000  -0.166110   0.059074  -0.507705
   27  O  2  Y    0.574575   0.000000  -0.357016   0.127263  -1.093876
   28  O  2  Z   -0.000001  -0.000376  -0.688617  -0.075342   0.516204
   29  O  2  S   -0.000002   0.000136   1.157114   0.296203  -0.099231
   30  O  2  X    1.946764   0.000000   0.416447   0.119918   0.429171
   31  O  2  Y   -0.904480   0.000000   0.896255   0.258411   0.924650
   32  O  2  Z    0.000001   0.000045  -0.499542  -0.584060   0.481516
   33  O  2 XX    0.000000  -0.665065  -0.345178   0.239612   0.755733
   34  O  2 YY    0.000000   0.665055  -0.321872   0.315185   0.505135
   35  O  2 ZZ   -0.000001  -0.000058  -0.043978   0.238534   1.272802
   36  O  2 XY    0.000000  -0.649008   0.015903   0.051706  -0.171227
   37  O  2 XZ    0.286138   0.000000   0.013875   0.019562   0.109203
   38  O  2 YZ   -0.132394   0.000000   0.029937   0.042149   0.235299

                     21         22         23         24         25

                    0.0000     0.0000     0.0000     0.0000     0.0000

    1  C  1  S   -0.227457   0.059680   0.014209  -0.041029  -0.163688
    2  C  1  S    0.862634   0.364167   0.007587   0.263474   0.428008
    3  C  1  X    0.130973  -0.171910  -0.210031   0.007388  -0.016637
    4  C  1  Y    0.282260  -0.370292  -0.452563   0.015919  -0.035850
    5  C  1  Z   -0.154652   0.209339   0.034481   0.032911  -0.390651
    6  C  1  S    1.296485   0.933499   0.268024   0.794082  -4.041239
    7  C  1  X   -0.244873   0.409816  -0.028230   0.000989  -0.002248
    8  C  1  Y   -0.527583   0.883100  -0.060836   0.002132  -0.004846
    9  C  1  Z    0.250813   1.334389   0.165805  -0.278776  -2.410608
   10  C  1  S    0.465441   0.296306   0.125060   2.783340  -1.180096
   11  C  1  X    0.052743  -0.015063  -0.003991   0.000140  -0.000315
   12  C  1  Y    0.113127  -0.033558  -0.008456   0.000297  -0.000668
   13  C  1  Z   -0.101400   0.055180   0.003985   2.048531   0.580619
   14  C  1 XX   -0.798729  -0.098921   0.042406   0.002816  -0.478050
   15  C  1 YY   -0.728868  -0.277593   0.012901  -0.248940  -0.321140
   16  C  1 ZZ   -0.623610   0.651371   0.044467  -0.291943  -0.724805
   17  C  1 XY    0.047742  -0.122016  -0.020149  -0.171949   0.107140
   18  C  1 XZ   -0.214293  -0.021006  -0.393390   0.013832  -0.031170
   19  C  1 YZ   -0.461620  -0.045026  -0.847657   0.029805  -0.067163
   20  O  2  S    0.148736   0.013028   0.021940   0.023686  -0.156657
   21  O  2  S   -0.609426  -0.131562   0.065538  -0.208739  -0.684911
   22  O  2  X    0.026709   0.119381   0.166672  -0.005860   0.013201
   23  O  2  Y    0.057877   0.257928   0.359033  -0.012623   0.028437
   24  O  2  Z   -0.093424   0.006523   0.001289  -0.037245  -0.060213
   25  O  2  S   -0.282864  -1.180064  -0.428967   1.067290   4.480382
   26  O  2  X    0.118768  -0.098838  -0.005630   0.000197  -0.000440
   27  O  2  Y    0.255019  -0.214850  -0.011882   0.000417  -0.000927
   28  O  2  Z   -0.162403   1.369552   0.139155   0.187539  -1.600588
   29  O  2  S   -0.872918  -0.742730  -0.206830  -4.761776   2.422220
   30  O  2  X    0.037369  -0.269160   0.087089  -0.003060   0.006905
   31  O  2  Y    0.081555  -0.577743   0.187358  -0.006584   0.014855
   32  O  2  Z    0.812251  -0.737650   0.094905   0.072221  -1.735025
   33  O  2 XX    0.190155  -0.026080   0.097317   0.261363  -0.748235
   34  O  2 YY    0.403746   0.174342   0.130464   0.332923  -1.045115
   35  O  2 ZZ    0.561855  -0.306943  -0.009803   0.041249   0.413244
   36  O  2 XY    0.145954   0.136918   0.022645   0.048858  -0.202830
   37  O  2 XZ    0.108547   0.129727  -0.441749   0.015536  -0.035007
   38  O  2 YZ    0.233843   0.279433  -0.951813   0.033474  -0.075427

                     26         27         28         29         30

                    0.0000     0.0000     0.0000     0.0000     0.0000

    1  C  1  S    0.107400  -0.057614  -0.228382  -0.049118   0.123284
    2  C  1  S    1.191343  -0.397655   0.864344   1.311869  -0.749748
    3  C  1  X    0.004674  -0.166728  -0.133380   0.070112   0.117439
    4  C  1  Y    0.010071  -0.359130  -0.287444   0.151065   0.253040
    5  C  1  Z    0.007592  -0.215798  -0.155567   0.234315  -0.073904
    6  C  1  S   -4.214868  -1.003980   1.297963  -2.286739  -1.204401
    7  C  1  X    0.000627   0.391805   0.251547   0.011263  -0.184993
    8  C  1  Y    0.001351   0.844288   0.541964   0.024266  -0.398600
    9  C  1  Z   -1.417666  -1.397787   0.246574  -1.123998  -0.302934
   10  C  1  S   -3.165724  -0.316630   0.464888   0.112883  -0.184861
   11  C  1  X    0.000088  -0.014249  -0.052993  -0.082667   0.009333
   12  C  1  Y    0.000187  -0.031761  -0.113686  -0.178088   0.020122
   13  C  1  Z   -1.011988  -0.055709  -0.101738   0.167225   0.117593
   14  C  1 XX    0.315171   0.119699  -0.800949  -0.264113   0.413972
   15  C  1 YY    0.032894   0.304281  -0.730055  -0.278193   0.870507
   16  C  1 ZZ   -0.409460  -0.665553  -0.628601  -0.436947   0.210488
   17  C  1 XY   -0.192781   0.126050   0.048447  -0.009589   0.311836
   18  C  1 XZ    0.008754  -0.025363   0.214071   0.110496   0.044547
   19  C  1 YZ    0.018862  -0.054422   0.461148   0.238075   0.095981
   20  O  2  S    0.372661  -0.016297   0.148912  -0.240227   0.092767
   21  O  2  S    0.942837   0.147159  -0.609726  -0.430231  -0.479320
   22  O  2  X   -0.003708   0.116443  -0.024748   0.204225   0.167737
   23  O  2  Y   -0.007987   0.251568  -0.053639   0.440017   0.361411
   24  O  2  Z   -0.094034  -0.005069  -0.093622   0.090158  -0.022337
   25  O  2  S   -4.350952   1.238721  -0.279116   3.777106   0.488517
   26  O  2  X    0.000124  -0.094358  -0.120410  -0.507750  -0.058740
   27  O  2  Y    0.000262  -0.205124  -0.258593  -1.093978  -0.126545
   28  O  2  Z   -0.452055  -1.426246  -0.167745  -0.516158  -0.074962
   29  O  2  S    7.316430   0.792888  -0.872900   0.099532   0.296043
   30  O  2  X   -0.001936  -0.257097  -0.041898   0.428970  -0.120272
   31  O  2  Y   -0.004166  -0.551837  -0.091273   0.924225  -0.259173
   32  O  2  Z   -1.705066   0.753505   0.817028  -0.482082  -0.583708
   33  O  2 XX    1.292645   0.023315   0.190604  -0.755622   0.240084
   34  O  2 YY    1.492609  -0.189634   0.403935  -0.505062   0.315479
   35  O  2 ZZ    1.084807   0.310465   0.563532  -1.272753   0.239366
   36  O  2 XY    0.136590  -0.145477   0.145776   0.171201   0.051584
   37  O  2 XZ    0.009829   0.119908  -0.105432   0.109321  -0.019602
   38  O  2 YZ    0.021178   0.258280  -0.227132   0.235553  -0.042234

                     31         32         33         34         35

                    0.0000     0.0000     0.0000     0.0000    -0.0001

    1  C  1  S   -0.204301  -0.027260  -0.163457  -0.067679   0.039452
    2  C  1  S    0.732481   0.430839   1.042823  -1.779421  -1.143112
    3  C  1  X   -0.011264   0.000028   0.000000   0.000000   0.000000
    4  C  1  Y   -0.024326   0.000060   0.000000   0.000000   0.000000
    5  C  1  Z    0.090738   0.061873  -1.246577  -1.284205  -0.406906
    6  C  1  S    3.705033  -0.842029  -1.270290  -1.061906  -0.975748
    7  C  1  X    0.122940  -0.000053   0.000000   0.000000   0.000000
    8  C  1  Y    0.264857  -0.000115   0.000000   0.000000   0.000000
    9  C  1  Z    1.166024   0.547921   0.538988  -0.671186  -0.642098
   10  C  1  S   -0.329004   0.221454   0.645771  -0.277613  -0.246743
   11  C  1  X   -0.522832   0.000122  -0.000001   0.000000   0.000000
   12  C  1  Y   -1.126016   0.000263  -0.000002   0.000000   0.000000
   13  C  1  Z   -0.040606  -0.038676  -0.405496  -0.115721  -0.212680
   14  C  1 XX   -0.860131  -0.467758  -0.194285   0.405148   0.060287
   15  C  1 YY   -0.718732  -0.003619  -0.185836   0.137612  -0.099815
   16  C  1 ZZ   -0.849595   0.486779  -1.192486  -0.430461   0.291427
   17  C  1 XY    0.096577   0.317025   0.005744  -0.182661  -0.109460
   18  C  1 XZ   -0.001864   0.000024   0.000000   0.000000   0.000000
   19  C  1 YZ   -0.004126   0.000051   0.000000   0.000000   0.000000
   20  O  2  S    0.059506   0.032535   0.042508  -0.093113  -0.002031
   21  O  2  S    0.596231   0.443334   0.299482  -0.015314  -0.803976
   22  O  2  X    0.022058   0.000041   0.000000   0.000000   0.000000
   23  O  2  Y    0.047200   0.000089   0.000000   0.000000   0.000000
   24  O  2  Z   -0.032743   0.757967  -0.476766  -0.170342   0.141031
   25  O  2  S   -2.389258  -1.844884   0.143229   2.170273   1.802745
   26  O  2  X   -0.166136  -0.000044   0.000000   0.000000   0.000000
   27  O  2  Y   -0.357085  -0.000095   0.000000   0.000000   0.000000
   28  O  2  Z    0.688570  -0.743649  -0.672138  -2.096201  -1.429005
   29  O  2  S   -1.156973   1.222476  -0.174326   0.568027   0.745676
   30  O  2  X    0.415721  -0.000045   0.000000   0.000000   0.000000
   31  O  2  Y    0.894707  -0.000096   0.000001   0.000000   0.000000
   32  O  2  Z    0.499616  -0.072904   0.022742   0.238420   0.040080
   33  O  2 XX    0.345293   0.135477   0.241890  -0.869574   0.355821
   34  O  2 YY    0.321936   0.149989  -0.138386  -0.163118  -0.076726
   35  O  2 ZZ    0.043951   0.054773   0.838732   0.892984  -0.187021
   36  O  2 XY   -0.015939   0.009977  -0.259894   0.482687  -0.295264
   37  O  2 XZ    0.014356   0.000010   0.000000   0.000000   0.000000
   38  O  2 YZ    0.030973   0.000021   0.000000   0.000000   0.000000

                     36         37         38

                   -0.0001    -0.0009    -0.0065

    1  C  1  S    0.000000   0.000000   0.001530
    2  C  1  S    0.000000   0.000000   0.267305
    3  C  1  X   -0.610691  -0.339278   0.000000
    4  C  1  Y    0.283526  -0.730986   0.000000
    5  C  1  Z    0.000000   0.000000  -0.487063
    6  C  1  S    0.000000   0.000000  -1.469073
    7  C  1  X    0.513833  -0.115962   0.000000
    8  C  1  Y   -0.238587  -0.249828   0.000000
    9  C  1  Z    0.000000   0.000000  -0.935685
   10  C  1  S    0.000000   0.000000  -0.532262
   11  C  1  X   -0.414653  -0.018301   0.000000
   12  C  1  Y    0.192297  -0.039329   0.000000
   13  C  1  Z    0.000000   0.000000   0.041044
   14  C  1 XX    0.000000   0.000000  -0.347448
   15  C  1 YY    0.000000   0.000000  -0.054458
   16  C  1 ZZ    0.000000   0.000000   0.437174
   17  C  1 XY    0.000000   0.000000   0.200162
   18  C  1 XZ   -0.019572   0.053407   0.000000
   19  C  1 YZ    0.009132   0.115038   0.000000
   20  O  2  S    0.000000   0.000000  -0.096747
   21  O  2  S    0.000000   0.000000  -0.102871
   22  O  2  X   -0.657136   0.091429   0.000000
   23  O  2  Y    0.304912   0.197092   0.000000
   24  O  2  Z    0.000000   0.000000  -0.102199
   25  O  2  S    0.000000   0.000000   1.700914
   26  O  2  X    0.745864   0.179575   0.000000
   27  O  2  Y   -0.346218   0.386890   0.000000
   28  O  2  Z    0.000000   0.000000  -0.671921
   29  O  2  S    0.000000   0.000000   0.221645
   30  O  2  X    0.139947   0.097952   0.000000
   31  O  2  Y   -0.064703   0.210850   0.000000
   32  O  2  Z    0.000000   0.000000   0.052625
   33  O  2 XX    0.000000   0.000000  -0.076492
   34  O  2 YY    0.000000   0.000000  -0.072623
   35  O  2 ZZ    0.000000   0.000000  -0.126380
   36  O  2 XY    0.000000   0.000000   0.002656
   37  O  2 XZ   -0.155512   0.021436   0.000000
   38  O  2 YZ    0.072061   0.046276   0.000000

 THE TDDFT NATURAL ORBITALS HAVE BEEN PUNCHED.
 ..... DONE WITH TD-DFT EXCITED STATE RESPONSE AND DENSITY MATRIX .....
 STEP CPU TIME =     1.18 TOTAL CPU TIME =        5.5 (    0.1 MIN)
 TOTAL WALL CLOCK TIME=        5.8 SECONDS, CPU UTILIZATION IS  95.49%

     ------------------------------------------
     PROPERTIES FOR THE PBE0     DFT FUNCTIONAL
      USING THE RELAXED DENSITY OF EXCITED STATE    1
     ------------------------------------------

          -----------------
          ENERGY COMPONENTS
          -----------------

         WAVEFUNCTION NORMALIZATION =       1.0000000000

                ONE ELECTRON ENERGY =    -197.6519645846
                TWO ELECTRON ENERGY =      62.2638339145
           NUCLEAR REPULSION ENERGY =      22.5117346394
                                      ------------------
                       TOTAL ENERGY =    -112.8763960308

 ELECTRON-ELECTRON POTENTIAL ENERGY =      62.2638339145
  NUCLEUS-ELECTRON POTENTIAL ENERGY =    -309.9998889893
   NUCLEUS-NUCLEUS POTENTIAL ENERGY =      22.5117346394
                                      ------------------
             TOTAL POTENTIAL ENERGY =    -225.2243204355
               TOTAL KINETIC ENERGY =     112.3479244047
                 VIRIAL RATIO (V/T) =       2.0047038842

          ---------------------------------------
          MULLIKEN AND LOWDIN POPULATION ANALYSES
          ---------------------------------------

     ATOMIC MULLIKEN POPULATION IN EACH MOLECULAR ORBITAL

                      1          2          3          4          5

                  2.000000   2.000000   2.000000   2.000000   2.000000

    1            -0.000236   1.999896   0.583390   0.428222   0.524762
    2             2.000236   0.000104   1.416610   1.571778   1.475238

                      6          7

                  2.000000   2.000000

    1             0.524762   1.808805
    2             1.475238   0.191195

               ----- POPULATIONS IN EACH AO -----
                             MULLIKEN      LOWDIN
              1  C  1  S      1.99318     1.96972
              2  C  1  S      0.75617     0.39303
              3  C  1  X      0.70856     0.63897
              4  C  1  Y      0.46273     0.40811
              5  C  1  Z      0.56603     0.50651
              6  C  1  S      0.55194     0.28792
              7  C  1  X      0.39382     0.39707
              8  C  1  Y      0.19106     0.23392
              9  C  1  Z      0.08109     0.23462
             10  C  1  S      0.03770     0.07296
             11  C  1  X      0.13732     0.11377
             12  C  1  Y      0.03697     0.03768
             13  C  1  Z      0.01580     0.02638
             14  C  1 XX     -0.03399     0.11459
             15  C  1 YY     -0.01946     0.12542
             16  C  1 ZZ      0.03409     0.22909
             17  C  1 XY      0.00036     0.00036
             18  C  1 XZ      0.01979     0.04895
             19  C  1 YZ      0.02091     0.04025
             20  O  2  S      1.99295     1.97625
             21  O  2  S      0.95028     0.72847
             22  O  2  X      1.03853     0.97977
             23  O  2  Y      0.92051     0.85657
             24  O  2  Z      0.86669     0.78072
             25  O  2  S      0.93045     0.39644
             26  O  2  X      0.54186     0.53887
             27  O  2  Y      0.52412     0.50467
             28  O  2  Z      0.29515     0.42394
             29  O  2  S     -0.02330     0.11515
             30  O  2  X     -0.02218     0.07824
             31  O  2  Y      0.00943     0.07815
             32  O  2  Z     -0.00630     0.11205
             33  O  2 XX     -0.00633     0.15210
             34  O  2 YY     -0.00246     0.15477
             35  O  2 ZZ      0.00858     0.18814
             36  O  2 XY      0.00001     0.00002
             37  O  2 XZ      0.01468     0.03673
             38  O  2 YZ      0.01328     0.01966

          ----- MULLIKEN ATOMIC OVERLAP POPULATIONS -----
          (OFF-DIAGONAL ELEMENTS NEED TO BE MULTIPLIED BY 2)

             1           2

    1    5.8019003
    2    0.1521598   7.8937801

          TOTAL MULLIKEN AND LOWDIN ATOMIC POPULATIONS
       ATOM         MULL.POP.    CHARGE          LOW.POP.     CHARGE
    1 C             5.954060    0.045940         5.879303    0.120697
    2 O             8.045940   -0.045940         8.120697   -0.120697

          -------------------------------
          BOND ORDER AND VALENCE ANALYSIS     BOND ORDER THRESHOLD=0.050
          -------------------------------

                   BOND                       BOND                       BOND
  ATOM PAIR DIST  ORDER      ATOM PAIR DIST  ORDER      ATOM PAIR DIST  ORDER
    1   2  1.128  1.805

                       TOTAL       BONDED        FREE
      ATOM            VALENCE     VALENCE     VALENCE
    1 C                 3.358       1.805       1.554
    2 O                 2.249       1.805       0.444

          ---------------------
          ELECTROSTATIC MOMENTS
          ---------------------

 POINT   1           X           Y           Z (BOHR)    CHARGE
                 0.000000    0.000000    1.218246        0.00 (A.U.)
         DX          DY          DZ         /D/  (DEBYE)
     0.000000    0.000000   -0.269010    0.269010
 ...... END OF PROPERTY EVALUATION ......
 STEP CPU TIME =     0.01 TOTAL CPU TIME =        5.5 (    0.1 MIN)
 TOTAL WALL CLOCK TIME=        5.8 SECONDS, CPU UTILIZATION IS  95.50%

 BEGINNING ONE ELECTRON GRADIENT...
 ..... END OF 1-ELECTRON GRADIENT ......
 STEP CPU TIME =     0.00 TOTAL CPU TIME =        5.5 (    0.1 MIN)
 TOTAL WALL CLOCK TIME=        5.8 SECONDS, CPU UTILIZATION IS  95.34%

          ----------------------
          GRADIENT OF THE ENERGY
          ----------------------
 MEMORY FOR GRID POINT CONTRIBUTIONS TO THE TD-DFT GRADIENT=    844924 WORDS.
 STEP CPU TIME =     1.58 TOTAL CPU TIME =        7.1 (    0.1 MIN)
 TOTAL WALL CLOCK TIME=        7.4 SECONDS, CPU UTILIZATION IS  95.95%

 THE MINIMUM MEMORY REQUIRED FOR THIS RUN IS      79211 WORDS.
 USING     993761 WORDS FOR 2E- DERIVATIVE INTEGRAL CONTRIBUTIONS.
 THE COARSE/FINE SCHWARZ SCREENINGS SKIPPED            0/           0 BLOCKS.
 THE NUMBER OF GRADIENT INTEGRAL BLOCKS COMPUTED WAS      1300
 ...... END OF 2-ELECTRON GRADIENT ......
 STEP CPU TIME =     0.10 TOTAL CPU TIME =        7.2 (    0.1 MIN)
 TOTAL WALL CLOCK TIME=        7.5 SECONDS, CPU UTILIZATION IS  96.00%

                         ----------------------
                         GRADIENT OF THE ENERGY
                         ----------------------

 UNITS ARE HARTREE/BOHR    E'X               E'Y               E'Z 
    1 C                0.000000000       0.000000000       0.194338939
    2 O                0.000000000       0.000000000      -0.194338939

                   MAXIMUM GRADIENT =    0.194338939
                       RMS GRADIENT =    0.112201639
  $VIB   
          IVIB=   0 IATOM=   0 ICOORD=   0 E=     -112.8763960308
  0.000000000E+00 0.000000000E+00 1.943389387E-01 0.000000000E+00 0.000000000E+00
 -1.943389387E-01
 -2.455928398E-10 1.247512011E-10-2.690095954E-01

..... END OF SINGLE POINT GRADIENT .....
 STEP CPU TIME =     0.00 TOTAL CPU TIME =        7.2 (    0.1 MIN)
 TOTAL WALL CLOCK TIME=        7.5 SECONDS, CPU UTILIZATION IS  95.74%
                844924  WORDS OF DYNAMIC MEMORY USED
 EXECUTION OF GAMESS TERMINATED NORMALLY Tue Sep 13 13:59:58 2016
 DDI: 263624 bytes (0.3 MB / 0 MWords) used by master data server.

 ----------------------------------------
 CPU timing information for all processes
 ========================================
 0: 7.188 + 0.96 = 7.284
 1: 9.540 + 0.36 = 9.576
 ----------------------------------------
----- accounting info -----
Files used on the master node g4noden2 were:
-rw-r--r-- 1 g4rosendo g4   48754 sep 13 13:59 /scratch/g4rosendo/exam41.dat
-rw-r--r-- 1 g4rosendo g4    2197 sep 13 13:59 /scratch/g4rosendo/exam41.F05
-rw-r--r-- 1 g4rosendo g4  900080 sep 13 13:59 /scratch/g4rosendo/exam41.F08
-rw-r--r-- 1 g4rosendo g4 1799600 sep 13 13:59 /scratch/g4rosendo/exam41.F10
-rw-r--r-- 1 g4rosendo g4  826576 sep 13 13:59 /scratch/g4rosendo/exam41.F22
-rw-r--r-- 1 g4rosendo g4       0 sep 13 13:59 /scratch/g4rosendo/exam41.nodes.mpd
mar sep 13 14:00:00 CEST 2016
17.005u 0.284s 0:12.50 138.2%	0+0k 63568+19576io 156pf+0w
