----- GAMESS execution script 'rungms' -----
This job is running on host g4noden2
under operating system Linux at mar sep 13 13:54:37 CEST 2016
Available scratch disk space (Kbyte units) at beginning of the job is
Filesystem           1K-blocks      Used Available Use% Mounted on
/dev/mapper/vgsys-scratch
                     941038652  50794880 890243772   6% /scratch
GAMESS temporary binary files will be written to /scratch/g4rosendo
GAMESS supplementary output files will be written to /scratch/g4rosendo
Copying input file exam29.inp to your run's scratch directory...
MPI kickoff will run GAMESS on 2 cores in 2 nodes.
The binary to be executed is /aplic/gamess/gamess-2013r1_intel11.1_mkl11.1_ompi-1.4.2/gamess.00.x
MPI will run 2 compute processes and 2 data servers,
    placing  of each process type onto each node.
The scratch disk space on each node is /scratch/g4rosendo, with free space
Filesystem           1K-blocks      Used Available Use% Mounted on
/dev/mapper/vgsys-scratch
                     941038652  50794904 890243748   6% /scratch
          ******************************************************
          *         GAMESS VERSION =  1 MAY 2013 (R1)          *
          *             FROM IOWA STATE UNIVERSITY             *
          * M.W.SCHMIDT, K.K.BALDRIDGE, J.A.BOATZ, S.T.ELBERT, *
          *   M.S.GORDON, J.H.JENSEN, S.KOSEKI, N.MATSUNAGA,   *
          *          K.A.NGUYEN, S.J.SU, T.L.WINDUS,           *
          *       TOGETHER WITH M.DUPUIS, J.A.MONTGOMERY       *
          *         J.COMPUT.CHEM.  14, 1347-1363(1993)        *
          **************** 64 BIT INTEL VERSION ****************

  SINCE 1993, STUDENTS AND POSTDOCS WORKING AT IOWA STATE UNIVERSITY
  AND ALSO IN THEIR VARIOUS JOBS AFTER LEAVING ISU HAVE MADE IMPORTANT
  CONTRIBUTIONS TO THE CODE:
     IVANA ADAMOVIC, CHRISTINE AIKENS, YURI ALEXEEV, POOJA ARORA,
     ANDREY ASADCHEV, ROB BELL, PRADIPTA BANDYOPADHYAY, JONATHAN BENTZ,
     BRETT BODE, GALINA CHABAN, WEI CHEN, CHEOL HO CHOI, PAUL DAY,
     ALBERT DEFUSCO, TIM DUDLEY, DMITRI FEDOROV, GRAHAM FLETCHER,
     MARK FREITAG, KURT GLAESEMANN, DAN KEMP, GRANT MERRILL,
     NORIYUKI MINEZAWA, JONATHAN MULLIN, TAKESHI NAGATA,
     SEAN NEDD, HEATHER NETZLOFF, BOSILJKA NJEGIC, RYAN OLSON, MIKE PAK,
     JIM SHOEMAKER, LYUDMILA SLIPCHENKO, SAROM SOK, JIE SONG,
     TETSUYA TAKETSUGU, SIMON WEBB, SOOHAENG YOO, FEDERICO ZAHARIEV

  ADDITIONAL CODE HAS BEEN PROVIDED BY COLLABORATORS IN OTHER GROUPS:
     IOWA STATE UNIVERSITY:
          JOE IVANIC, LAIMUTIS BYTAUTAS, KLAUS RUEDENBERG
     UNIVERSITY OF TOKYO: KIMIHIKO HIRAO, TAKAHITO NAKAJIMA,
          TAKAO TSUNEDA, MUNEAKI KAMIYA, SUSUMU YANAGISAWA,
          KIYOSHI YAGI, MAHITO CHIBA, SEIKEN TOKURA, NAOAKI KAWAKAMI
     UNIVERSITY OF AARHUS: FRANK JENSEN
     UNIVERSITY OF IOWA: VISVALDAS KAIRYS, HUI LI
     NATIONAL INST. OF STANDARDS AND TECHNOLOGY: WALT STEVENS, DAVID GARMER
     UNIVERSITY OF PISA: BENEDETTA MENNUCCI, JACOPO TOMASI
     UNIVERSITY OF MEMPHIS: HENRY KURTZ, PRAKASHAN KORAMBATH
     UNIVERSITY OF ALBERTA: TOBY ZENG, MARIUSZ KLOBUKOWSKI
     UNIVERSITY OF NEW ENGLAND: MARK SPACKMAN
     MIE UNIVERSITY: HIROAKI UMEDA
     MICHIGAN STATE UNIVERSITY:
          KAROL KOWALSKI, MARTA WLOCH, JEFFREY GOUR, JESSE LUTZ,
          WEI LI, PIOTR PIECUCH
     UNIVERSITY OF SILESIA: MONIKA MUSIAL, STANISLAW KUCHARSKI
     FACULTES UNIVERSITAIRES NOTRE-DAME DE LA PAIX:
          OLIVIER QUINET, BENOIT CHAMPAGNE
     UNIVERSITY OF CALIFORNIA - SANTA BARBARA: BERNARD KIRTMAN
     INSTITUTE FOR MOLECULAR SCIENCE:
          KAZUYA ISHIMURA, MICHIO KATOUDA, AND SHIGERU NAGASE
     UNIVERSITY OF NOTRE DAME: DAN CHIPMAN
     KYUSHU UNIVERSITY:
          HARUYUKI NAKANO,
          FENG LONG GU, JACEK KORCHOWIEC, MARCIN MAKOWSKI, AND YURIKO AOKI,
          HIROTOSHI MORI AND EISAKU MIYOSHI
     PENNSYLVANIA STATE UNIVERSITY:
          TZVETELIN IORDANOV, CHET SWALINA, JONATHAN SKONE,
          SHARON HAMMES-SCHIFFER
     WASEDA UNIVERSITY:
          MASATO KOBAYASHI, TOMOKO AKAMA, TSUGUKI TOUMA,
          TAKESHI YOSHIKAWA, YASUHIRO IKABATA, HIROMI NAKAI
     NANJING UNIVERSITY: SHUHUA LI
     UNIVERSITY OF NEBRASKA:
          PEIFENG SU, DEJUN SI, NANDUN THELLAMUREGE, YALI WANG, HUI LI
     UNIVERSITY OF ZURICH:
          ROBERTO PEVERATI, KIM BALDRIDGE
     N. COPERNICUS UNIVERSITY AND JACKSON STATE UNIVERSITY:
          MARIA BARYSZ

 EXECUTION OF GAMESS BEGUN Tue Sep 13 13:54:38 2016

            ECHO OF THE FIRST FEW INPUT CARDS -
 INPUT CARD>! EXAM29.  surface scan                                                         
 INPUT CARD>!  The scan is done over a 3x3 grid centered on the SCF                         
 INPUT CARD>!  transition state for the endothermic SN2 type reaction                       
 INPUT CARD>!      F- + NH2OH -> F-NH2-OH anion -> FNH2 + OH-                               
 INPUT CARD>!                                                                               
 INPUT CARD>!  Groups 1 and 2 are F and OH, and their distance from                         
 INPUT CARD>!  the N is varied antisymmetrically, which is more or                          
 INPUT CARD>!  less what the IRC should be like.  The results seem to                       
 INPUT CARD>!  indicate that the MP2/3-21G saddle point would shift                         
 INPUT CARD>!  further into the product channel, since the higher                           
 INPUT CARD>!  MP2 energies occur at shorter r(NF) and longer r(NO):                        
 INPUT CARD>!                                                                               
 INPUT CARD>!  FINAL E= -229.0368324512, E(MP2)= -229.3873300818                            
 INPUT CARD>!  FINAL E= -229.0356378315, E(MP2)= -229.3866641810                            
 INPUT CARD>!  FINAL E= -229.0309266214, E(MP2)= -229.3822093947                            
 INPUT CARD>!  FINAL E= -229.0372146613, E(MP2)= -229.3923234590                            
 INPUT CARD>!  FINAL E= -229.0385440206, E(MP2)= -229.3936484220                            
 INPUT CARD>!  FINAL E= -229.0367369459, E(MP2)= -229.3913681166                            
 INPUT CARD>!  FINAL E= -229.0328601039, E(MP2)= -229.3918932844                            
 INPUT CARD>!  FINAL E= -229.0364643856, E(MP2)= -229.3948324033                            
 INPUT CARD>!  FINAL E= -229.0372478139, E(MP2)= -229.3943496933                            
 INPUT CARD>!                                                                               
 INPUT CARD>!  A more conclusive way to tell this would be to compute                       
 INPUT CARD>!  single point MP2 energies along the SCF IRC, since the                       
 INPUT CARD>!  true reaction path always curves, and thus does not lie                      
 INPUT CARD>!  along rectangular grid points.                                               
 INPUT CARD>!                                                                               
 INPUT CARD> $contrl scftyp=rhf runtyp=surface                                              
 INPUT CARD>         icharg=-1 coord=zmt mplevl=2 $end                                      
 INPUT CARD> $system timlim=1 $end                                                          
 INPUT CARD> $surf   ivec1(1)=2,1 igrp1=1                                                   
 INPUT CARD>         ivec2(1)=2,5 igrp2(1)=5,6                                              
 INPUT CARD>         disp1= 0.10 ndisp1=3 orig1=-0.10                                       
 INPUT CARD>         disp2=-0.10 ndisp2=3 orig2= 0.10 $end                                  
 INPUT CARD> $basis  gbasis=n21 ngauss=3 $end                                               
 INPUT CARD> $guess  guess=huckel $end                                                      
 INPUT CARD> $data                                                                          
 INPUT CARD>F-NH2-OH exchange (inspired by J.Phys.Chem. 1994,98,7942-4)                     
 INPUT CARD>Cs                                                                              
 INPUT CARD>                                                                                
 INPUT CARD>F                                                                               
 INPUT CARD>N 1 rNF                                                                         
 INPUT CARD>H 2 rNH   1  aFNH                                                               
 INPUT CARD>H 2 rNH   1  aFNH   3 aHNH  +1                                                  
 INPUT CARD>O 2 rNO   3  aONH   4 aONH  -1                                                  
 INPUT CARD>H 5 rOH   2  aHON   1 180.0                                                     
 INPUT CARD>                                                                                
 INPUT CARD>rNF=1.7125469                                                                   
 INPUT CARD>rNH=0.9966981                                                                   
 INPUT CARD>rNO=1.9359887                                                                   
    1000000 WORDS OF MEMORY AVAILABLE

     BASIS OPTIONS
     -------------
     GBASIS=N21          IGAUSS=       3      POLAR=NONE    
     NDFUNC=       0     NFFUNC=       0     DIFFSP=       F
     NPFUNC=       0      DIFFS=       F     BASNAM=        


     RUN TITLE
     ---------
 F-NH2-OH exchange (inspired by J.Phys.Chem. 1994,98,7942-4)                     

 THE POINT GROUP OF THE MOLECULE IS CS      
 THE ORDER OF THE PRINCIPAL AXIS IS     0

 YOUR FULLY SUBSTITUTED Z-MATRIX IS
 F   
 N      1   1.7125469
 H      2   0.9966981  1   90.1849
 H      2   0.9966981  1   90.1849  3  108.5700  1
 O      2   1.9359887  3   79.3434  4   79.3434 -1
 H      5   0.9828978  2  100.7885  1  180.0000  0

 THE MOMENTS OF INERTIA ARE (AMU-ANGSTROM**2)
 IXX=     3.103   IYY=   119.201   IZZ=   119.665

 ATOM      ATOMIC                      COORDINATES (BOHR)
           CHARGE         X                   Y                   Z
 F           9.0     3.2294062787       -0.1045539737        0.0000000000
 N           7.0     0.0301704385        0.3834703492        0.0000000000
 H           1.0    -0.1416396910       -0.7025151675       -1.5292604046
 H           1.0    -0.1416396910       -0.7025151675        1.5292604046
 O           8.0    -3.5783718137       -0.2189899551        0.0000000000
 H           1.0    -4.2217645512        1.5234245953        0.0000000000

          INTERNUCLEAR DISTANCES (ANGS.)
          ------------------------------

                1 F          2 N          3 H          4 H          5 O     

   1 F       0.0000000    1.7125469 *  1.9842486 *  1.9842486 *  3.6030302  
   2 N       1.7125469 *  0.0000000    0.9966981 *  0.9966981 *  1.9359887 *
   3 H       1.9842486 *  0.9966981 *  0.0000000    1.6184996 *  2.0069400 *
   4 H       1.9842486 *  0.9966981 *  1.6184996 *  0.0000000    2.0069400 *
   5 O       3.6030302    1.9359887 *  2.0069400 *  2.0069400 *  0.0000000  
   6 H       4.0360048    2.3294889 *  2.5892327 *  2.5892327 *  0.9828978 *

                6 H     

   1 F       4.0360048  
   2 N       2.3294889 *
   3 H       2.5892327 *
   4 H       2.5892327 *
   5 O       0.9828978 *
   6 H       0.0000000  

  * ... LESS THAN  3.000


     ATOMIC BASIS SET
     ----------------
 THE CONTRACTED PRIMITIVE FUNCTIONS HAVE BEEN UNNORMALIZED
 THE CONTRACTED BASIS FUNCTIONS ARE NOW NORMALIZED TO UNITY

  SHELL TYPE  PRIMITIVE        EXPONENT          CONTRACTION COEFFICIENT(S)

 F         

      1   S       1           413.8010000    0.058548302929
      1   S       2            62.2446000    0.349308017477
      1   S       3            13.4340000    0.709632035505

      2   L       4             9.7775900   -0.407326277682    0.246680003198
      2   L       5             2.0861700    1.223137830990    0.852321011049

      3   L       6             0.4823830    1.000000000000    1.000000000000

 N         

      4   S       7           242.7660000    0.059865700508
      4   S       8            36.4851000    0.352955002994
      4   S       9             7.8144900    0.706513005993

      5   L      10             5.4252200   -0.413300077430    0.237972016222
      5   L      11             1.1491500    1.224417266851    0.858953058551

      6   L      12             0.2832050    1.000000000000    1.000000000000

 H         

      9   S      13             5.4471780    0.156284978695
      9   S      14             0.8245472    0.904690876670

     10   S      15             0.1831916    1.000000000000

 O         

     11   S      16           322.0370000    0.059239393389
     11   S      17            48.4308000    0.351499960776
     11   S      18            10.4206000    0.707657921031

     12   L      19             7.4029400   -0.404453583190    0.244586106967
     12   L      20             1.5762000    1.221561761397    0.853955373466

     13   L      21             0.3736840    1.000000000000    1.000000000000

 H         

     14   S      22             5.4471780    0.156284978695
     14   S      23             0.8245472    0.904690876670

     15   S      24             0.1831916    1.000000000000

 TOTAL NUMBER OF BASIS SET SHELLS             =   15
 NUMBER OF CARTESIAN GAUSSIAN BASIS FUNCTIONS =   33
 NUMBER OF ELECTRONS                          =   28
 CHARGE OF MOLECULE                           =   -1
 SPIN MULTIPLICITY                            =    1
 NUMBER OF OCCUPIED ORBITALS (ALPHA)          =   14
 NUMBER OF OCCUPIED ORBITALS (BETA )          =   14
 TOTAL NUMBER OF ATOMS                        =    6
 THE NUCLEAR REPULSION ENERGY IS       69.6136930289

     $CONTRL OPTIONS
     ---------------
 SCFTYP=RHF          RUNTYP=SURFACE      EXETYP=RUN     
 MPLEVL=       2     CITYP =NONE         CCTYP =NONE         VBTYP =NONE    
 DFTTYP=NONE         TDDFT =NONE    
 MULT  =       1     ICHARG=      -1     NZVAR =       0     COORD =ZMT     
 PP    =NONE         RELWFN=NONE         LOCAL =NONE         NUMGRD=       F
 ISPHER=      -1     NOSYM =       0     MAXIT =      30     UNITS =ANGS    
 PLTORB=       F     MOLPLT=       F     AIMPAC=       F     FRIEND=        
 NPRINT=       7     IREST =       0     GEOM  =INPUT   
 NORMF =       0     NORMP =       0     ITOL  =      20     ICUT  =       9
 INTTYP=BEST         GRDTYP=BEST         QMTTOL= 1.0E-06

     $SYSTEM OPTIONS
     ---------------
  REPLICATED MEMORY=     1000000 WORDS (ON EVERY NODE).
 DISTRIBUTED MEMDDI=           0 MILLION WORDS IN AGGREGATE,
 MEMDDI DISTRIBUTED OVER   1 PROCESSORS IS           0 WORDS/PROCESSOR.
 TOTAL MEMORY REQUESTED ON EACH PROCESSOR=     1000000 WORDS.
 TIMLIM=           1.00 MINUTES, OR       0.0 DAYS.
 PARALL= F  BALTYP=  DLB     KDIAG=    0  COREFL= F
 MXSEQ2=     300 MXSEQ3=     150

          ----------------
          PROPERTIES INPUT
          ----------------

     MOMENTS            FIELD           POTENTIAL          DENSITY
 IEMOM =       1   IEFLD =       0   IEPOT =       0   IEDEN =       0
 WHERE =COMASS     WHERE =NUCLEI     WHERE =NUCLEI     WHERE =NUCLEI  
 OUTPUT=BOTH       OUTPUT=BOTH       OUTPUT=BOTH       OUTPUT=BOTH    
 IEMINT=       0   IEFINT=       0                     IEDINT=       0
                                                       MORB  =       0
          EXTRAPOLATION IN EFFECT
          SOSCF IN EFFECT
 ORBITAL PRINTING OPTION: NPREO=     1    33     2     1

     -------------------------------
     INTEGRAL TRANSFORMATION OPTIONS
     -------------------------------
     NWORD  =            0
     CUTOFF = 1.0E-09     MPTRAN =       0
     DIRTRF =       F     AOINTS =DUP     

          ----------------------
          INTEGRAL INPUT OPTIONS
          ----------------------
 NOPK  =       1 NORDER=       0 SCHWRZ=       T

          -----------------------
          MP2 CONTROL INFORMATION
          -----------------------
          NACORE =        3  NBCORE =        3
          LMOMP2 =        F  AOINTS = DUP     
          METHOD =        2  NWORD  =               0
          MP2PRP =        F  OSPT   = NONE    
          CUTOFF = 1.00E-09  CPHFBS = BASISAO 
          CODE   = IMS     

          NUMBER OF CORE -A-  ORBITALS =     3
          NUMBER OF CORE -B-  ORBITALS =     3
          NUMBER OF OCC. -A-  ORBITALS =    14
          NUMBER OF OCC. -B-  ORBITALS =    14
          NUMBER OF MOLECULAR ORBITALS =    33
          NUMBER OF   BASIS  FUNCTIONS =    33


   --- ENCODED Z MATRIX ---
 COORD  TYPE   I   J   K   L   M   N
    1      1    2   1
    2      1    4   2
    3      2    4   2   1
    4      1    3   2
    5      2    3   2   1
    6      2    3   2   4
    7      1    5   2
    8      2    5   2   4
    9      2    5   2   3
   10      1    6   5
   11      2    6   5   2
   12      3    6   5   2   1

 THE DETERMINANT OF THE G MATRIX IS 10**(    -8)

     ------------------------------------------
     THE POINT GROUP IS CS , NAXIS= 0, ORDER= 2
     ------------------------------------------

     DIMENSIONS OF THE SYMMETRY SUBSPACES ARE
 A'  =   25     A'' =    8

 ..... DONE SETTING UP THE RUN .....
 STEP CPU TIME =     0.01 TOTAL CPU TIME =        0.0 (    0.0 MIN)
 TOTAL WALL CLOCK TIME=        0.0 SECONDS, CPU UTILIZATION IS  33.33%

     ---------------------------
     POTENTIAL SURFACE MAP INPUT
     ---------------------------
 JOB 1 IS RUNTYP=ENERGY   SCFTYP=RHF       CITYP=NONE    
          MPLEVL=       2  CCTYP=NONE     DFTTYP=NONE    
 COORD 1 LYING ALONG ATOM PAIR    2    1
 HAS ORIGIN=-0.100, DISPLACEMENT= 0.100  AND  3 STEPS.
 GROUP 1 CONTAINS    1 ATOMS:
     1
 COORD 2 LYING ALONG ATOM PAIR    2    5
 HAS ORIGIN= 0.100, DISPLACEMENT=-0.100  AND  3 STEPS.
 GROUP 2 CONTAINS    2 ATOMS:
     5    6

 ATOM      ATOMIC                      COORDINATES (BOHR)
           CHARGE         X                   Y                   Z
 F           9.0     3.0425947035       -0.0760569835        0.0000000000
 N           7.0     0.0301704385        0.3834703492        0.0000000000
 H           1.0    -0.1416396910       -0.7025151675       -1.5292604046
 H           1.0    -0.1416396910       -0.7025151675        1.5292604046
 O           8.0    -3.7647645469       -0.2501089541        0.0000000000
 H           1.0    -4.4081572844        1.4923055963        0.0000000000

          INTERNUCLEAR DISTANCES (ANGS.)
          ------------------------------

                1 F          2 N          3 H          4 H          5 O     

   1 F       0.0000000    1.6125469 *  1.8984440 *  1.8984440 *  3.6034769  
   2 N       1.6125469 *  0.0000000    0.9966981 *  0.9966981 *  2.0359887 *
   3 H       1.8984440 *  0.9966981 *  0.0000000    1.6184996 *  2.0947896 *
   4 H       1.8984440 *  0.9966981 *  1.6184996 *  0.0000000    2.0947896 *
   5 O       3.6034769    2.0359887 *  2.0947896 *  2.0947896 *  0.0000000  
   6 H       4.0291719    2.4208496 *  2.6648185 *  2.6648185 *  0.9828978 *

                6 H     

   1 F       4.0291719  
   2 N       2.4208496 *
   3 H       2.6648185 *
   4 H       2.6648185 *
   5 O       0.9828978 *
   6 H       0.0000000  

  * ... LESS THAN  3.000


          ********************
          1 ELECTRON INTEGRALS
          ********************
 ...... END OF ONE-ELECTRON INTEGRALS ......
 STEP CPU TIME =     0.00 TOTAL CPU TIME =        0.0 (    0.0 MIN)
 TOTAL WALL CLOCK TIME=        0.1 SECONDS, CPU UTILIZATION IS  20.00%

          -------------
          GUESS OPTIONS
          -------------
          GUESS =HUCKEL            NORB  =       0          NORDER=       0
          MIX   =       F          PRTMO =       F          PUNMO =       F
          TOLZ  = 1.0E-08          TOLE  = 1.0E-05
          SYMDEN=       F          PURIFY=       F

 INITIAL GUESS ORBITALS GENERATED BY HUCKEL   ROUTINE.
 HUCKEL GUESS REQUIRES     13563 WORDS.

 SYMMETRIES FOR INITIAL GUESS ORBITALS FOLLOW.   BOTH SET(S).
    14 ORBITALS ARE OCCUPIED (    3 CORE ORBITALS).
     4=A'       5=A'       6=A'       7=A''      8=A'       9=A'      10=A'  
    11=A''     12=A''     13=A'      14=A'      15=A'      16=A''     17=A'  
    18=A'      19=A'      20=A'      21=A'      22=A'      23=A'      24=A'  
 ...... END OF INITIAL ORBITAL SELECTION ......
 STEP CPU TIME =     0.00 TOTAL CPU TIME =        0.0 (    0.0 MIN)
 TOTAL WALL CLOCK TIME=        0.1 SECONDS, CPU UTILIZATION IS  16.67%

                    ----------------------
                    AO INTEGRAL TECHNOLOGY
                    ----------------------
     S,P,L SHELL ROTATED AXIS INTEGRALS, REPROGRAMMED BY
        KAZUYA ISHIMURA (IMS) AND JOSE SIERRA (SYNSTAR).
     S,P,D,L SHELL ROTATED AXIS INTEGRALS PROGRAMMED BY
        KAZUYA ISHIMURA (INSTITUTE FOR MOLECULAR SCIENCE).
     S,P,D,F,G SHELL TO TOTAL QUARTET ANGULAR MOMENTUM SUM 5,
        ERIC PROGRAM BY GRAHAM FLETCHER (ELORET AND NASA ADVANCED
        SUPERCOMPUTING DIVISION, AMES RESEARCH CENTER).
     S,P,D,F,G,L SHELL GENERAL RYS QUADRATURE PROGRAMMED BY
        MICHEL DUPUIS (PACIFIC NORTHWEST NATIONAL LABORATORY).

          --------------------
          2 ELECTRON INTEGRALS
          --------------------

 THE -PK- OPTION IS OFF, THE INTEGRALS ARE NOT IN SUPERMATRIX FORM.
 STORING   15000 INTEGRALS/RECORD ON DISK, USING 12 BYTES/INTEGRAL.
 TWO ELECTRON INTEGRAL EVALUATION REQUIRES   89476 WORDS OF MEMORY.
 SCHWARZ INEQUALITY OVERHEAD:       533 INTEGRALS, T=        0.00
 II,JST,KST,LST =  1  1  1  1 NREC =         1 INTLOC =    1
 II,JST,KST,LST =  2  1  1  1 NREC =         1 INTLOC =    2
 II,JST,KST,LST =  3  1  1  1 NREC =         1 INTLOC =   34
 II,JST,KST,LST =  4  1  1  1 NREC =         1 INTLOC =  214
 II,JST,KST,LST =  5  1  1  1 NREC =         1 INTLOC =  449
 II,JST,KST,LST =  6  1  1  1 NREC =         1 INTLOC = 2585
 II,JST,KST,LST =  7  1  1  1 NREC =         1 INTLOC = 7245
 II,JST,KST,LST =  8  1  1  1 NREC =         1 INTLOC = 7245
 II,JST,KST,LST =  9  1  1  1 NREC =         1 INTLOC = 7245
 II,JST,KST,LST = 10  1  1  1 NREC =         1 INTLOC =10967
 II,JST,KST,LST = 11  1  1  1 NREC =         2 INTLOC =  978
 II,JST,KST,LST = 12  1  1  1 NREC =         2 INTLOC = 2387
 II,JST,KST,LST = 13  1  1  1 NREC =         2 INTLOC =12616
 II,JST,KST,LST = 14  1  1  1 NREC =         4 INTLOC = 3826
 II,JST,KST,LST = 15  1  1  1 NREC =         4 INTLOC = 9666
 SCHWARZ INEQUALITY TEST SKIPPED         954 INTEGRAL BLOCKS.
 TOTAL NUMBER OF NONZERO TWO-ELECTRON INTEGRALS =               63381
          5 INTEGRAL RECORDS WERE STORED ON DISK FILE  8.
  ...... END OF TWO-ELECTRON INTEGRALS .....
 STEP CPU TIME =     0.03 TOTAL CPU TIME =        0.0 (    0.0 MIN)
 TOTAL WALL CLOCK TIME=        0.1 SECONDS, CPU UTILIZATION IS  44.44%

          --------------------------
                 RHF SCF CALCULATION
          --------------------------

     NUCLEAR ENERGY =        70.0382261096
     MAXIT =   30     NPUNCH=    2
     EXTRAP=T  DAMP=F  SHIFT=F  RSTRCT=F  DIIS=F  DEM=F  SOSCF=T
     DENSITY MATRIX CONV=  1.00E-06
     SOSCF WILL OPTIMIZE     266 ORBITAL ROTATIONS, SOGTOL=   0.250
     MEMORY REQUIRED FOR RHF ITERS=     39149 WORDS.

 ITER EX DEM     TOTAL ENERGY        E CHANGE  DENSITY CHANGE     ORB. GRAD
   1  0  0     -228.4380267628  -228.4380267628   0.585016180   0.000000000
          ---------------START SECOND ORDER SCF---------------
   2  1  0     -228.9751832696    -0.5371565068   0.141897258   0.111481465
   3  2  0     -229.0140812557    -0.0388979861   0.064028396   0.079634004
   4  3  0     -229.0362106789    -0.0221294231   0.025840432   0.007697238
   5  4  0     -229.0367770242    -0.0005663453   0.008639408   0.001874193
   6  5  0     -229.0368248948    -0.0000478706   0.001734717   0.000979860
   7  6  0     -229.0368317107    -0.0000068158   0.000315932   0.000297576
   8  7  0     -229.0368323346    -0.0000006239   0.000112760   0.000083271
   9  8  0     -229.0368324262    -0.0000000917   0.000074046   0.000042607
  10  9  0     -229.0368324477    -0.0000000215   0.000027898   0.000016742
  11 10  0     -229.0368324511    -0.0000000034   0.000005383   0.000002997
  12 11  0     -229.0368324512    -0.0000000001   0.000003055   0.000000859
  13 12  0     -229.0368324512     0.0000000000   0.000000822   0.000000201
  14 13  0     -229.0368324512     0.0000000000   0.000000161   0.000000057

          -----------------
          DENSITY CONVERGED
          -----------------
     TIME TO FORM FOCK OPERATORS=       0.0 SECONDS (       0.0 SEC/ITER)
     TIME TO SOLVE SCF EQUATIONS=       0.0 SECONDS (       0.0 SEC/ITER)

 FINAL RHF ENERGY IS     -229.0368324512 AFTER  14 ITERATIONS

          ------------
          EIGENVECTORS
          ------------

                      1          2          3          4          5
                  -25.7959   -20.0242   -15.3349    -1.2247    -0.9260
                     A'         A'         A'         A'         A'  
    1  F  1  S    0.981838  -0.000034  -0.000260  -0.239033   0.065958
    2  F  1  S    0.094709  -0.000483  -0.001940   0.225706  -0.057801
    3  F  1  X   -0.001924   0.000176   0.000361  -0.030123  -0.047124
    4  F  1  Y    0.000192  -0.000148  -0.000007  -0.000304   0.002577
    5  F  1  Z    0.000000   0.000000   0.000000   0.000000   0.000000
    6  F  1  S   -0.029022   0.001447   0.005975   0.758131  -0.245781
    7  F  1  X    0.005231  -0.001075  -0.004899  -0.032820  -0.028165
    8  F  1  Y   -0.000603   0.000570   0.000515  -0.002806   0.001994
    9  F  1  Z    0.000000   0.000000   0.000000   0.000000   0.000000
   10  N  2  S   -0.000536  -0.000197   0.985911  -0.060851  -0.154973
   11  N  2  S   -0.003178  -0.001335   0.098245   0.061009   0.152431
   12  N  2  X   -0.001289   0.001488   0.000805   0.038998  -0.030603
   13  N  2  Y    0.000178   0.000162  -0.004153  -0.023252  -0.070718
   14  N  2  Z    0.000000   0.000000   0.000000   0.000000   0.000000
   15  N  2  S    0.007225   0.001783  -0.050480   0.165700   0.469124
   16  N  2  X    0.007362  -0.004802  -0.001663   0.032660  -0.017172
   17  N  2  Y   -0.002014  -0.000915   0.010159  -0.019746  -0.066240
   18  N  2  Z    0.000000   0.000000   0.000000   0.000000   0.000000
   19  H  3  S   -0.002026  -0.001353   0.002934   0.029081   0.103980
   20  H  3  S    0.000517   0.001001   0.010158   0.005212   0.016086
   21  H  4  S   -0.002026  -0.001353   0.002934   0.029081   0.103980
   22  H  4  S    0.000517   0.001001   0.010158   0.005212   0.016086
   23  O  5  S   -0.000074   0.983134  -0.000063  -0.003307  -0.149131
   24  O  5  S   -0.000502   0.094392  -0.001057   0.003564   0.139775
   25  O  5  X   -0.000305   0.000053  -0.000762   0.002756   0.010711
   26  O  5  Y   -0.000160   0.002819  -0.000245   0.000597   0.037196
   27  O  5  Z    0.000000   0.000000   0.000000   0.000000   0.000000
   28  O  5  S    0.000984  -0.033566   0.001738   0.008895   0.459930
   29  O  5  X    0.001152  -0.000501   0.002619   0.000108   0.003277
   30  O  5  Y    0.000572  -0.005712   0.000995   0.001302   0.031934
   31  O  5  Z    0.000000   0.000000   0.000000   0.000000   0.000000
   32  H  6  S   -0.000502   0.002275  -0.000686   0.000946   0.081564
   33  H  6  S    0.000536   0.007825   0.000419   0.000346   0.036724

                      6          7          8          9         10
                   -0.8526    -0.4701    -0.3519    -0.3147    -0.2818
                     A'         A''        A'         A'         A'' 
    1  F  1  S   -0.055744   0.000000   0.014521  -0.023091   0.000000
    2  F  1  S    0.048087   0.000000  -0.015205   0.023772   0.000000
    3  F  1  X    0.057425   0.000000  -0.129868   0.374398   0.000000
    4  F  1  Y   -0.003565   0.000000   0.344682   0.203407   0.000000
    5  F  1  Z    0.000000   0.143858   0.000000   0.000000   0.510078
    6  F  1  S    0.216397   0.000000  -0.061884   0.106002   0.000000
    7  F  1  X    0.038547   0.000000  -0.156363   0.443143   0.000000
    8  F  1  Y   -0.000980   0.000000   0.397540   0.241322   0.000000
    9  F  1  Z    0.000000   0.158659   0.000000   0.000000   0.606915
   10  N  2  S    0.139504   0.000000  -0.047373  -0.033719   0.000000
   11  N  2  S   -0.136179   0.000000   0.040775   0.040496   0.000000
   12  N  2  X   -0.004809   0.000000   0.099927  -0.191541   0.000000
   13  N  2  Y    0.068731   0.000000   0.267838   0.053650   0.000000
   14  N  2  Z    0.000000   0.386629   0.000000   0.000000  -0.143187
   15  N  2  S   -0.439515   0.000000   0.235197   0.110506   0.000000
   16  N  2  X   -0.021050   0.000000   0.112798  -0.224791   0.000000
   17  N  2  Y    0.068048   0.000000   0.296028   0.088961   0.000000
   18  N  2  Z    0.000000   0.312011   0.000000   0.000000  -0.107521
   19  H  3  S   -0.096032  -0.221735  -0.078563   0.032579   0.093357
   20  H  3  S   -0.002633  -0.166423  -0.081025   0.020596   0.034250
   21  H  4  S   -0.096032   0.221735  -0.078563   0.032579  -0.093357
   22  H  4  S   -0.002633   0.166423  -0.081025   0.020596  -0.034250
   23  O  5  S   -0.178808   0.000000   0.005072   0.005039   0.000000
   24  O  5  S    0.162837   0.000000  -0.005467  -0.005850   0.000000
   25  O  5  X   -0.032259   0.000000  -0.046340   0.115770   0.000000
   26  O  5  Y    0.046546   0.000000   0.044479  -0.025632   0.000000
   27  O  5  Z    0.000000   0.026976   0.000000   0.000000  -0.022845
   28  O  5  S    0.570903   0.000000  -0.026796  -0.005497   0.000000
   29  O  5  X   -0.019676   0.000000  -0.035088   0.129641   0.000000
   30  O  5  Y    0.043365   0.000000   0.044960  -0.026361   0.000000
   31  O  5  Z    0.000000   0.026270   0.000000   0.000000  -0.032849
   32  H  6  S    0.109974   0.000000   0.040634  -0.053715   0.000000
   33  H  6  S    0.054097   0.000000   0.053308  -0.055591   0.000000

                     11         12         13         14         15
                   -0.2343    -0.2065    -0.0953    -0.0642     0.4877
                     A'         A'         A''        A'         A'  
    1  F  1  S    0.003046  -0.000640   0.000000  -0.011327   0.016372
    2  F  1  S   -0.001775  -0.003397   0.000000   0.005229  -0.016305
    3  F  1  X   -0.070605  -0.073607   0.000000  -0.184023   0.151211
    4  F  1  Y    0.295377  -0.174012   0.000000   0.049052  -0.042015
    5  F  1  Z    0.000000   0.000000   0.018818   0.000000   0.000000
    6  F  1  S   -0.023145   0.016792   0.000000   0.067410  -0.083078
    7  F  1  X   -0.082904  -0.104563   0.000000  -0.258861   0.225933
    8  F  1  Y    0.356564  -0.205499   0.000000   0.067756  -0.064147
    9  F  1  Z    0.000000   0.000000   0.018468   0.000000   0.000000
   10  N  2  S    0.060890  -0.026926   0.000000   0.054672  -0.116311
   11  N  2  S   -0.063142   0.024067   0.000000  -0.063336   0.038162
   12  N  2  X    0.072720  -0.003901   0.000000  -0.028739   0.214212
   13  N  2  Y   -0.269328   0.257285   0.000000  -0.048890  -0.150758
   14  N  2  Z    0.000000   0.000000  -0.062374   0.000000   0.000000
   15  N  2  S   -0.264473   0.120611   0.000000  -0.210248   1.196895
   16  N  2  X    0.077368  -0.046680   0.000000  -0.088114   0.247195
   17  N  2  Y   -0.296089   0.278685   0.000000  -0.054879  -0.463929
   18  N  2  Z    0.000000   0.000000  -0.078662   0.000000   0.000000
   19  H  3  S    0.049110  -0.082030   0.032709  -0.036579  -0.041703
   20  H  3  S    0.050700  -0.012212  -0.053361   0.007633  -0.866337
   21  H  4  S    0.049110  -0.082030  -0.032709  -0.036579  -0.041703
   22  H  4  S    0.050700  -0.012212   0.053361   0.007633  -0.866337
   23  O  5  S   -0.053651  -0.066788   0.000000   0.001131  -0.052767
   24  O  5  S    0.040279   0.047140   0.000000  -0.004876   0.027840
   25  O  5  X   -0.004362   0.117426   0.000000   0.416604   0.072013
   26  O  5  Y   -0.213558  -0.275825   0.000000   0.163436   0.071958
   27  O  5  Z    0.000000   0.000000   0.494502   0.000000   0.000000
   28  O  5  S    0.266653   0.350922   0.000000   0.005850   0.388305
   29  O  5  X   -0.019766   0.131213   0.000000   0.555291   0.116860
   30  O  5  Y   -0.238925  -0.300688   0.000000   0.221206   0.171103
   31  O  5  Z    0.000000   0.000000   0.648143   0.000000   0.000000
   32  H  6  S   -0.134322  -0.219412   0.000000   0.001195  -0.001736
   33  H  6  S   -0.172883  -0.251204   0.000000  -0.026397  -0.392656

                     16         17         18         19         20
                    0.4887     0.5670     0.6051     1.3835     1.5095
                     A'         A''        A'         A''        A'  
    1  F  1  S    0.048689   0.000000   0.010631   0.000000  -0.002340
    2  F  1  S   -0.044702   0.000000  -0.009708   0.000000   0.023224
    3  F  1  X    0.220022   0.000000   0.066142   0.000000  -0.043784
    4  F  1  Y   -0.037108   0.000000  -0.016709   0.000000   0.019464
    5  F  1  Z    0.000000   0.023393   0.000000  -0.102096   0.000000
    6  F  1  S   -0.284601   0.000000  -0.062304   0.000000  -0.041978
    7  F  1  X    0.353458   0.000000   0.107418   0.000000   0.052425
    8  F  1  Y   -0.057376   0.000000  -0.025447   0.000000   0.005513
    9  F  1  Z    0.000000   0.037890   0.000000  -0.066550   0.000000
   10  N  2  S    0.040617   0.000000  -0.027067   0.000000  -0.001910
   11  N  2  S    0.003801   0.000000   0.005942   0.000000   0.039045
   12  N  2  X    0.408132   0.000000   0.136767   0.000000  -0.199532
   13  N  2  Y    0.091884   0.000000  -0.061548   0.000000   0.551450
   14  N  2  Z    0.000000   0.302527   0.000000  -0.032174   0.000000
   15  N  2  S   -0.609120   0.000000   0.321453   0.000000   0.101768
   16  N  2  X    0.640866   0.000000   0.196219   0.000000   0.180337
   17  N  2  Y    0.291549   0.000000  -0.161895   0.000000  -0.416530
   18  N  2  Z    0.000000   0.976359   0.000000   0.719289   0.000000
   19  H  3  S    0.033472   0.047839  -0.026355   0.938208   0.228503
   20  H  3  S    0.565539   1.303996  -0.271334  -0.522795  -0.235924
   21  H  4  S    0.033472  -0.047839  -0.026355  -0.938208   0.228503
   22  H  4  S    0.565539  -1.303996  -0.271334   0.522795  -0.235924
   23  O  5  S   -0.024082   0.000000   0.064551   0.000000   0.024550
   24  O  5  S    0.022698   0.000000  -0.004532   0.000000  -0.013520
   25  O  5  X    0.134780   0.000000   0.150729   0.000000   0.102311
   26  O  5  Y    0.062670   0.000000  -0.227785   0.000000  -0.174584
   27  O  5  Z    0.000000   0.058478   0.000000  -0.085689   0.000000
   28  O  5  S    0.130005   0.000000  -0.692854   0.000000  -0.017944
   29  O  5  X    0.171457   0.000000   0.321559   0.000000   0.155278
   30  O  5  Y    0.118020   0.000000  -0.581720   0.000000  -0.305305
   31  O  5  Z    0.000000   0.105722   0.000000  -0.025785   0.000000
   32  H  6  S    0.017955   0.000000   0.000939   0.000000   1.077631
   33  H  6  S   -0.139732   0.000000   1.319744   0.000000  -0.543721

                     21         22         23         24         25
                    1.5654     1.6412     1.7591     1.8357     2.1752
                     A'         A'         A''        A'         A'' 
    1  F  1  S   -0.024327   0.003836   0.000000   0.043050   0.000000
    2  F  1  S    0.060876  -0.005366   0.000000  -0.066241   0.000000
    3  F  1  X   -0.090732  -0.034956   0.000000  -0.016063   0.000000
    4  F  1  Y   -0.060856  -0.098255   0.000000   0.012102   0.000000
    5  F  1  Z    0.000000   0.000000  -0.051241   0.000000  -0.099935
    6  F  1  S    0.086045  -0.029460   0.000000  -0.313066   0.000000
    7  F  1  X   -0.059111   0.021793   0.000000   0.307438   0.000000
    8  F  1  Y   -0.012695  -0.026445   0.000000  -0.052969   0.000000
    9  F  1  Z    0.000000   0.000000  -0.022601   0.000000   0.066795
   10  N  2  S    0.087468   0.034969   0.000000  -0.026198   0.000000
   11  N  2  S   -0.220249  -0.095949   0.000000   0.091775   0.000000
   12  N  2  X    0.038328  -0.225666   0.000000  -0.975104   0.000000
   13  N  2  Y    0.102551  -0.889092   0.000000   0.064749   0.000000
   14  N  2  Z    0.000000   0.000000  -1.103109   0.000000  -0.013919
   15  N  2  S   -0.006598  -0.223774   0.000000   0.017360   0.000000
   16  N  2  X    0.028806   0.239674   0.000000   1.156146   0.000000
   17  N  2  Y    0.354614   1.054554   0.000000  -0.138556   0.000000
   18  N  2  Z    0.000000   0.000000   1.448620   0.000000   0.027854
   19  H  3  S    0.921778   0.142894  -0.148059  -0.096452   0.088895
   20  H  3  S   -0.503618   0.178737   0.813730   0.066403  -0.164657
   21  H  4  S    0.921778   0.142894   0.148059  -0.096452  -0.088895
   22  H  4  S   -0.503618   0.178737  -0.813730   0.066403   0.164657
   23  O  5  S   -0.034304   0.003673   0.000000  -0.041944   0.000000
   24  O  5  S    0.082894   0.009827   0.000000   0.130464   0.000000
   25  O  5  X    0.110318   0.052723   0.000000   0.309063   0.000000
   26  O  5  Y    0.012800  -0.186242   0.000000   0.143685   0.000000
   27  O  5  Z    0.000000   0.000000  -0.011007   0.000000   1.035197
   28  O  5  S    0.050019   0.052115   0.000000   0.013203   0.000000
   29  O  5  X   -0.002020   0.111240   0.000000  -0.067273   0.000000
   30  O  5  Y    0.100213  -0.095355   0.000000   0.026246   0.000000
   31  O  5  Z    0.000000   0.000000   0.017288   0.000000  -0.967091
   32  H  6  S   -0.406771   0.605422   0.000000  -0.379440   0.000000
   33  H  6  S    0.276792  -0.417087   0.000000   0.353110   0.000000

                     26         27         28         29         30
                    2.2628     2.3713     2.5783     2.5816     2.6895
                     A'         A'         A''        A'         A'  
    1  F  1  S    0.023174   0.025227   0.000000   0.005910  -0.015009
    2  F  1  S   -0.073442  -0.075809   0.000000  -0.022058   0.102120
    3  F  1  X    0.090601   0.051103   0.000000   0.214790   0.845416
    4  F  1  Y    0.044480  -0.238465   0.000000   0.950099  -0.242886
    5  F  1  Z    0.000000   0.000000   1.008521   0.000000   0.000000
    6  F  1  S   -0.089195  -0.110320   0.000000  -0.015171  -0.040688
    7  F  1  X    0.054361   0.116757   0.000000  -0.168514  -0.825900
    8  F  1  Y   -0.050056   0.174448   0.000000  -0.942791   0.248719
    9  F  1  Z    0.000000   0.000000  -0.994001   0.000000   0.000000
   10  N  2  S    0.012516   0.025372   0.000000   0.017304   0.035059
   11  N  2  S   -0.222876  -0.410741   0.000000  -0.332704  -0.709030
   12  N  2  X   -0.221036  -0.278350   0.000000  -0.057351  -0.042149
   13  N  2  Y    0.118187   0.049336   0.000000  -0.072547   0.086367
   14  N  2  Z    0.000000   0.000000  -0.069053   0.000000   0.000000
   15  N  2  S    0.256202   0.544300   0.000000   0.421985   0.790476
   16  N  2  X    0.394954   0.535251   0.000000   0.095368  -0.295917
   17  N  2  Y   -0.207914  -0.109791   0.000000   0.155239  -0.228419
   18  N  2  Z    0.000000   0.000000   0.222226   0.000000   0.000000
   19  H  3  S   -0.045598   0.075677   0.125151   0.082806  -0.084759
   20  H  3  S   -0.058359  -0.274303  -0.105526  -0.175110  -0.195502
   21  H  4  S   -0.045598   0.075677  -0.125151   0.082806  -0.084759
   22  H  4  S   -0.058359  -0.274303   0.105526  -0.175110  -0.195502
   23  O  5  S   -0.043235   0.006131   0.000000   0.001671   0.026796
   24  O  5  S    0.204132   0.015245   0.000000   0.009301  -0.248925
   25  O  5  X   -0.435891  -0.821540   0.000000  -0.105180   0.271221
   26  O  5  Y   -0.877802   0.508176   0.000000   0.157955  -0.023140
   27  O  5  Z    0.000000   0.000000   0.097030   0.000000   0.000000
   28  O  5  S    0.008152  -0.144941   0.000000  -0.033331   0.233618
   29  O  5  X    0.421021   0.960038   0.000000   0.151877  -0.388786
   30  O  5  Y    0.975023  -0.634218   0.000000  -0.225708   0.049020
   31  O  5  Z    0.000000   0.000000  -0.117081   0.000000   0.000000
   32  H  6  S   -0.293015   0.136506   0.000000   0.088827   0.012189
   33  H  6  S   -0.029293   0.368192   0.000000   0.050559  -0.182676

                     31         32         33
                    2.8809     3.4852     4.1433
                     A'         A'         A'  
    1  F  1  S    0.069859   0.002920   0.103509
    2  F  1  S   -0.407715  -0.023594  -1.470593
    3  F  1  X   -0.493621   0.017032   0.259792
    4  F  1  Y   -0.006417   0.054663  -0.030405
    5  F  1  Z    0.000000   0.000000   0.000000
    6  F  1  S    0.105873  -0.009040   1.580724
    7  F  1  X    0.741453  -0.016811  -0.612551
    8  F  1  Y   -0.005541  -0.087482   0.069711
    9  F  1  Z    0.000000   0.000000   0.000000
   10  N  2  S   -0.003148   0.011073   0.037015
   11  N  2  S   -1.353880   0.581459   0.565338
   12  N  2  X    0.039504  -0.199887   0.154028
   13  N  2  Y    0.127224  -0.047544  -0.041116
   14  N  2  Z    0.000000   0.000000   0.000000
   15  N  2  S    2.062028  -0.852972  -1.034868
   16  N  2  X    0.078740   0.441729  -0.645033
   17  N  2  Y   -0.568543   0.265175   0.298908
   18  N  2  Z    0.000000   0.000000   0.000000
   19  H  3  S   -0.308273   0.240885   0.247599
   20  H  3  S   -0.374350   0.048368   0.059573
   21  H  4  S   -0.308273   0.240885   0.247599
   22  H  4  S   -0.374350   0.048368   0.059573
   23  O  5  S    0.037398   0.087187  -0.003559
   24  O  5  S   -0.409317  -1.503220   0.142388
   25  O  5  X    0.226754  -0.156480   0.035050
   26  O  5  Y   -0.057429  -0.164633   0.034513
   27  O  5  Z    0.000000   0.000000   0.000000
   28  O  5  S    0.411867   1.662658  -0.187524
   29  O  5  X   -0.358478   0.248902  -0.083180
   30  O  5  Y    0.119909   0.427338  -0.088305
   31  O  5  Z    0.000000   0.000000   0.000000
   32  H  6  S   -0.033683  -0.275315   0.069768
   33  H  6  S   -0.204351  -0.320941  -0.017932
 ...... END OF RHF CALCULATION ......
 STEP CPU TIME =     0.02 TOTAL CPU TIME =        0.1 (    0.0 MIN)
 TOTAL WALL CLOCK TIME=        0.4 SECONDS, CPU UTILIZATION IS  14.63%

     ----------------------------------------------------------------
     PROPERTY VALUES FOR THE RHF   SELF-CONSISTENT FIELD WAVEFUNCTION
     ----------------------------------------------------------------

          -----------------
          ENERGY COMPONENTS
          -----------------

         WAVEFUNCTION NORMALIZATION =       1.0000000000

                ONE ELECTRON ENERGY =    -465.7956782499
                TWO ELECTRON ENERGY =     166.7206196890
           NUCLEAR REPULSION ENERGY =      70.0382261096
                                      ------------------
                       TOTAL ENERGY =    -229.0368324512

 ELECTRON-ELECTRON POTENTIAL ENERGY =     166.7206196890
  NUCLEUS-ELECTRON POTENTIAL ENERGY =    -694.7436748256
   NUCLEUS-NUCLEUS POTENTIAL ENERGY =      70.0382261096
                                      ------------------
             TOTAL POTENTIAL ENERGY =    -457.9848290270
               TOTAL KINETIC ENERGY =     228.9479965757
                 VIRIAL RATIO (V/T) =       2.0003880177

          ---------------------------------------
          MULLIKEN AND LOWDIN POPULATION ANALYSES
          ---------------------------------------

     ATOMIC MULLIKEN POPULATION IN EACH MOLECULAR ORBITAL

                      1          2          3          4          5

                  2.000000   2.000000   2.000000   2.000000   2.000000

    1             1.999215   0.000000   0.000267   1.781990   0.132992
    2             0.000762   0.000141   1.995697   0.196582   0.850442
    3             0.000012   0.000017   0.001994   0.010437   0.090023
    4             0.000012   0.000017   0.001994   0.010437   0.090023
    5             0.000000   1.998545   0.000044   0.000531   0.751769
    6             0.000000   0.001281   0.000003   0.000024   0.084751

                      6          7          8          9         10

                  2.000000   2.000000   2.000000   2.000000   2.000000

    1             0.107151   0.174216   1.046858   1.389295   1.816605
    2             0.619004   1.084125   0.792398   0.440531   0.103147
    3             0.060005   0.366727   0.052204   0.006199   0.037067
    4             0.060005   0.366727   0.052204   0.006199   0.037067
    5             1.013253   0.008204   0.038146   0.135694   0.006115
    6             0.140583   0.000000   0.018188   0.022081   0.000000

                     11         12         13         14

                  2.000000   2.000000   2.000000   2.000000

    1             0.623400   0.230584   0.001758   0.253323
    2             0.677747   0.448156   0.016397   0.095679
    3             0.016226   0.025400   0.006451   0.004194
    4             0.016226   0.025400   0.006451   0.004194
    5             0.493753   0.892820   1.968943   1.641425
    6             0.172648   0.377640   0.000000   0.001184

               ----- POPULATIONS IN EACH AO -----
                             MULLIKEN      LOWDIN
              1  F  1  S      1.98459     1.98140
              2  F  1  S      0.43381     0.61022
              3  F  1  X      0.67927     0.68521
              4  F  1  Y      0.88303     0.89787
              5  F  1  Z      0.88717     0.90241
              6  F  1  S      1.56013     1.31696
              7  F  1  X      0.92741     0.92529
              8  F  1  Y      1.09684     1.08262
              9  F  1  Z      1.10541     1.08857
             10  N  2  S      1.98988     1.98272
             11  N  2  S      0.43238     0.58332
             12  N  2  X      0.21953     0.21050
             13  N  2  Y      0.75910     0.75469
             14  N  2  Z      0.60984     0.57247
             15  N  2  S      1.39909     0.93296
             16  N  2  X      0.39117     0.48193
             17  N  2  Y      0.92600     0.93276
             18  N  2  Z      0.59383     0.64966
             19  H  3  S      0.48072     0.48589
             20  H  3  S      0.19623     0.34481
             21  H  4  S      0.48072     0.48589
             22  H  4  S      0.19623     0.34481
             23  O  5  S      1.98544     1.98116
             24  O  5  S      0.40461     0.58276
             25  O  5  X      0.68865     0.70268
             26  O  5  Y      0.54510     0.53149
             27  O  5  Z      0.81375     0.83682
             28  O  5  S      1.53412     1.21141
             29  O  5  X      1.01635     1.00181
             30  O  5  Y      0.79171     0.83835
             31  O  5  Z      1.16951     1.14813
             32  H  6  S      0.45888     0.47451
             33  H  6  S      0.35951     0.43792

          ----- MULLIKEN ATOMIC OVERLAP POPULATIONS -----
          (OFF-DIAGONAL ELEMENTS NEED TO BE MULTIPLIED BY 2)

             1           2           3           4           5

    1    9.5363850
    2    0.0372817   6.6647108
    3   -0.0081097   0.2997460   0.4098870
    4   -0.0081097   0.2997460  -0.0353489   0.4098870
    5    0.0002489   0.0229368   0.0129680   0.0129680   8.6993538
    6   -0.0000427  -0.0036122  -0.0021867  -0.0021867   0.2007657

             6

    6    0.6256474

          TOTAL MULLIKEN AND LOWDIN ATOMIC POPULATIONS
       ATOM         MULL.POP.    CHARGE          LOW.POP.     CHARGE
    1 F             9.557654   -0.557654         9.490547   -0.490547
    2 N             7.320809   -0.320809         7.101009   -0.101009
    3 H             0.676956    0.323044         0.830700    0.169300
    4 H             0.676956    0.323044         0.830700    0.169300
    5 O             8.949241   -0.949241         8.834610   -0.834610
    6 H             0.818385    0.181615         0.912433    0.087567

          -------------------------------
          BOND ORDER AND VALENCE ANALYSIS     BOND ORDER THRESHOLD=0.050
          -------------------------------

                   BOND                       BOND                       BOND
  ATOM PAIR DIST  ORDER      ATOM PAIR DIST  ORDER      ATOM PAIR DIST  ORDER
    1   2  1.613  0.556        1   5  3.603  0.070        2   3  0.997  0.838
    2   4  0.997  0.838        2   5  2.036  0.270        5   6  0.983  0.924

                       TOTAL       BONDED        FREE
      ATOM            VALENCE     VALENCE     VALENCE
    1 F                 0.652       0.652       0.000
    2 N                 2.504       2.504       0.000
    3 H                 0.885       0.885       0.000
    4 H                 0.885       0.885       0.000
    5 O                 1.322       1.322       0.000
    6 H                 0.931       0.931       0.000

          ---------------------
          ELECTROSTATIC MOMENTS
          ---------------------

 POINT   1           X           Y           Z (BOHR)    CHARGE
                -0.129149    0.000236    0.000000       -1.00 (A.U.)
         DX          DY          DZ         /D/  (DEBYE)
     2.486513   -0.312906    0.000000    2.506124
 ...... END OF PROPERTY EVALUATION ......
 STEP CPU TIME =     0.00 TOTAL CPU TIME =        0.1 (    0.0 MIN)
 TOTAL WALL CLOCK TIME=        0.4 SECONDS, CPU UTILIZATION IS  13.64%

 --------------------------   -----------------------------
 RHF-MP2 ENERGY CALCULATION   PROGRAM WRITTEN BY K.ISHIMURA
 --------------------------   -----------------------------
 NUMBER OF OCCUPIED ORBITALS            =   14
 NUMBER OF CORRELATED OCCUPIED ORBITALS =   11
 NUMBER OF VIRTUAL ORBITALS             =   19
 NUMBER OF BASIS FUNCTIONS              =   33
 NUMBER OF BASIS SHELLS                 =   15
 AO-TRANSFORMED INTEGRAL THRESHOLD      = 1.00E-09
 HALF-TRANSFORMED INTEGRAL THRESHOLD    = 2.35E-10
 TOTAL DISK REQUIRED (ALL PROCESSORS)=              0 MBYTES
                  DISK SPACE PER CORE=              0 MBYTES, USING P=    1
 MEMORY REQUIRED FOR TRANSFORMATION OF 1ST THREE INDICES=       20423
 MEMORY REQUIRED FOR    4TH INDEX TRANSF. AND MP2 ENERGY=       45315
 BEGINNING MP2 INTEGRAL TRANSFORMATION...
 BEGINNING    1ST SHELL LOOP...

 RESULTS OF MOLLER-PLESSET 2ND ORDER CORRECTION ARE
               E(0)=      -229.0368324512
               E(1)=         0.0
               E(2)=        -0.3504976306
             E(MP2)=      -229.3873300818
 SPIN-COMPONENT-SCALED MP2 RESULTS ARE
              E(2S)=        -0.2667839948
              E(2T)=        -0.0837136358
             E(2ST)=        -0.3480453390 = 6/5 * E(2S) + 1/3 * E(2T)
            SCS-MP2=      -229.3848777902
 ..... DONE WITH MP2 ENERGY .....
 STEP CPU TIME =     0.05 TOTAL CPU TIME =        0.1 (    0.0 MIN)
 TOTAL WALL CLOCK TIME=        0.5 SECONDS, CPU UTILIZATION IS  22.00%
 ---- SURFACE MAPPING GEOMETRY ----
 COORD 1=-0.100 COORD 2= 0.100
 HAS ENERGY VALUE    -229.387330
 F      1.61007  -0.04025   0.00000
 N      0.01597   0.20292   0.00000
 H     -0.07495  -0.37176  -0.80925
 H     -0.07495  -0.37176   0.80925
 O     -1.99223  -0.13235   0.00000
 H     -2.33270   0.78969   0.00000
 ----------------------------------

 ATOM      ATOMIC                      COORDINATES (BOHR)
           CHARGE         X                   Y                   Z
 F           9.0     3.0425947035       -0.0760569835        0.0000000000
 N           7.0     0.0301704385        0.3834703492        0.0000000000
 H           1.0    -0.1416396910       -0.7025151675       -1.5292604046
 H           1.0    -0.1416396910       -0.7025151675        1.5292604046
 O           8.0    -3.5783718137       -0.2189899551        0.0000000000
 H           1.0    -4.2217645512        1.5234245953        0.0000000000

          INTERNUCLEAR DISTANCES (ANGS.)
          ------------------------------

                1 F          2 N          3 H          4 H          5 O     

   1 F       0.0000000    1.6125469 *  1.8984440 *  1.8984440 *  3.5044812  
   2 N       1.6125469 *  0.0000000    0.9966981 *  0.9966981 *  1.9359887 *
   3 H       1.8984440 *  0.9966981 *  0.0000000    1.6184996 *  2.0069400 *
   4 H       1.8984440 *  0.9966981 *  1.6184996 *  0.0000000    2.0069400 *
   5 O       3.5044812    1.9359887 *  2.0069400 *  2.0069400 *  0.0000000  
   6 H       3.9362129    2.3294889 *  2.5892327 *  2.5892327 *  0.9828978 *

                6 H     

   1 F       3.9362129  
   2 N       2.3294889 *
   3 H       2.5892327 *
   4 H       2.5892327 *
   5 O       0.9828978 *
   6 H       0.0000000  

  * ... LESS THAN  3.000


          ********************
          1 ELECTRON INTEGRALS
          ********************
 ...... END OF ONE-ELECTRON INTEGRALS ......
 STEP CPU TIME =     0.00 TOTAL CPU TIME =        0.1 (    0.0 MIN)
 TOTAL WALL CLOCK TIME=        0.5 SECONDS, CPU UTILIZATION IS  22.00%

          --------------------
          2 ELECTRON INTEGRALS
          --------------------

 THE -PK- OPTION IS OFF, THE INTEGRALS ARE NOT IN SUPERMATRIX FORM.
 STORING   15000 INTEGRALS/RECORD ON DISK, USING 12 BYTES/INTEGRAL.
 TWO ELECTRON INTEGRAL EVALUATION REQUIRES   89476 WORDS OF MEMORY.
 SCHWARZ INEQUALITY OVERHEAD:       549 INTEGRALS, T=        0.00
 II,JST,KST,LST =  1  1  1  1 NREC =         1 INTLOC =    1
 II,JST,KST,LST =  2  1  1  1 NREC =         1 INTLOC =    2
 II,JST,KST,LST =  3  1  1  1 NREC =         1 INTLOC =   34
 II,JST,KST,LST =  4  1  1  1 NREC =         1 INTLOC =  214
 II,JST,KST,LST =  5  1  1  1 NREC =         1 INTLOC =  449
 II,JST,KST,LST =  6  1  1  1 NREC =         1 INTLOC = 2585
 II,JST,KST,LST =  7  1  1  1 NREC =         1 INTLOC = 7245
 II,JST,KST,LST =  8  1  1  1 NREC =         1 INTLOC = 7245
 II,JST,KST,LST =  9  1  1  1 NREC =         1 INTLOC = 7245
 II,JST,KST,LST = 10  1  1  1 NREC =         1 INTLOC =10967
 II,JST,KST,LST = 11  1  1  1 NREC =         2 INTLOC =  978
 II,JST,KST,LST = 12  1  1  1 NREC =         2 INTLOC = 2500
 II,JST,KST,LST = 13  1  1  1 NREC =         2 INTLOC =13281
 II,JST,KST,LST = 14  1  1  1 NREC =         4 INTLOC = 5169
 II,JST,KST,LST = 15  1  1  1 NREC =         4 INTLOC =11270
 SCHWARZ INEQUALITY TEST SKIPPED         896 INTEGRAL BLOCKS.
 TOTAL NUMBER OF NONZERO TWO-ELECTRON INTEGRALS =               65166
          5 INTEGRAL RECORDS WERE STORED ON DISK FILE  8.
  ...... END OF TWO-ELECTRON INTEGRALS .....
 STEP CPU TIME =     0.01 TOTAL CPU TIME =        0.1 (    0.0 MIN)
 TOTAL WALL CLOCK TIME=        0.5 SECONDS, CPU UTILIZATION IS  23.53%

          --------------------------
                 RHF SCF CALCULATION
          --------------------------

     NUCLEAR ENERGY =        71.3651640667
     MAXIT =   30     NPUNCH=    2
     EXTRAP=T  DAMP=F  SHIFT=F  RSTRCT=F  DIIS=F  DEM=F  SOSCF=T
     DENSITY MATRIX CONV=  1.00E-06
     SOSCF WILL OPTIMIZE     266 ORBITAL ROTATIONS, SOGTOL=   0.250
     MEMORY REQUIRED FOR RHF ITERS=     39149 WORDS.

 ITER EX DEM     TOTAL ENERGY        E CHANGE  DENSITY CHANGE     ORB. GRAD
          ---------------START SECOND ORDER SCF---------------
   1  0  0     -229.0346181762  -229.0346181762   0.013058555   0.010570508
   2  1  0     -229.0355158655    -0.0008976894   0.008054502   0.003093415
   3  2  0     -229.0356223643    -0.0001064987   0.003356807   0.000951647
   4  3  0     -229.0356358326    -0.0000134683   0.000810792   0.000496521
   5  4  0     -229.0356376345    -0.0000018019   0.000352007   0.000111211
   6  5  0     -229.0356378063    -0.0000001718   0.000158108   0.000045856
   7  6  0     -229.0356378276    -0.0000000212   0.000054902   0.000024354
   8  7  0     -229.0356378311    -0.0000000035   0.000010242   0.000006661
   9  8  0     -229.0356378315    -0.0000000004   0.000003797   0.000001999
  10  9  0     -229.0356378315     0.0000000000   0.000001259   0.000000522
  11 10  0     -229.0356378315     0.0000000000   0.000000160   0.000000070

          -----------------
          DENSITY CONVERGED
          -----------------
     TIME TO FORM FOCK OPERATORS=       0.0 SECONDS (       0.0 SEC/ITER)
     TIME TO SOLVE SCF EQUATIONS=       0.0 SECONDS (       0.0 SEC/ITER)

 FINAL RHF ENERGY IS     -229.0356378315 AFTER  11 ITERATIONS

          ------------
          EIGENVECTORS
          ------------

                      1          2          3          4          5
                  -25.7717   -20.0373   -15.3230    -1.2062    -0.9387
                     A'         A'         A'         A'         A'  
    1  F  1  S    0.981837  -0.000040  -0.000251  -0.238282   0.059425
    2  F  1  S    0.094764  -0.000568  -0.001854   0.224212  -0.052137
    3  F  1  X   -0.001904   0.000204   0.000337  -0.030398  -0.035477
    4  F  1  Y    0.000194  -0.000174   0.000012  -0.000255   0.001902
    5  F  1  Z    0.000000   0.000000   0.000000   0.000000   0.000000
    6  F  1  S   -0.029132   0.001709   0.005706   0.756425  -0.218238
    7  F  1  X    0.005299  -0.001255  -0.004711  -0.032243  -0.019736
    8  F  1  Y   -0.000632   0.000667   0.000435  -0.002830   0.001864
    9  F  1  Z    0.000000   0.000000   0.000000   0.000000   0.000000
   10  N  2  S   -0.000519  -0.000263   0.985944  -0.062430  -0.132345
   11  N  2  S   -0.003065  -0.001685   0.098489   0.062331   0.130390
   12  N  2  X   -0.001380   0.001569   0.000478   0.038462  -0.035610
   13  N  2  Y    0.000178   0.000164  -0.004164  -0.023790  -0.058671
   14  N  2  Z    0.000000   0.000000   0.000000   0.000000   0.000000
   15  N  2  S    0.006984   0.002641  -0.050990   0.170416   0.396073
   16  N  2  X    0.007721  -0.005805  -0.000783   0.031930  -0.024280
   17  N  2  Y   -0.001970  -0.001114   0.010294  -0.020257  -0.054412
   18  N  2  Z    0.000000   0.000000   0.000000   0.000000   0.000000
   19  H  3  S   -0.001957  -0.001560   0.003104   0.030018   0.088303
   20  H  3  S    0.000503   0.001064   0.010103   0.005887   0.014816
   21  H  4  S   -0.001957  -0.001560   0.003104   0.030018   0.088303
   22  H  4  S    0.000503   0.001064   0.010103   0.005887   0.014816
   23  O  5  S   -0.000092   0.983167  -0.000106  -0.005095  -0.172801
   24  O  5  S   -0.000611   0.094750  -0.001320   0.005456   0.161610
   25  O  5  X   -0.000326   0.000275  -0.000745   0.003760   0.012427
   26  O  5  Y   -0.000184   0.002828  -0.000246   0.000926   0.042956
   27  O  5  Z    0.000000   0.000000   0.000000   0.000000   0.000000
   28  O  5  S    0.001308  -0.034346   0.002494   0.013599   0.532817
   29  O  5  X    0.001379  -0.001320   0.003272   0.000191   0.005880
   30  O  5  Y    0.000702  -0.005807   0.001134   0.001811   0.037603
   31  O  5  Z    0.000000   0.000000   0.000000   0.000000   0.000000
   32  H  6  S   -0.000577   0.002443  -0.000835   0.001679   0.093935
   33  H  6  S    0.000586   0.007577   0.000542   0.000363   0.040273

                      6          7          8          9         10
                   -0.8452    -0.4606    -0.3410    -0.3062    -0.2635
                     A'         A''        A'         A'         A'' 
    1  F  1  S   -0.064768   0.000000   0.017619  -0.022033   0.000000
    2  F  1  S    0.055904   0.000000  -0.017692   0.021429   0.000000
    3  F  1  X    0.063323   0.000000  -0.164756   0.341156   0.000000
    4  F  1  Y   -0.003858   0.000000   0.299094   0.229466   0.000000
    5  F  1  Z    0.000000   0.134803   0.000000   0.000000   0.510151
    6  F  1  S    0.249668   0.000000  -0.076867   0.103837   0.000000
    7  F  1  X    0.042788   0.000000  -0.195481   0.400557   0.000000
    8  F  1  Y   -0.001533   0.000000   0.344425   0.272866   0.000000
    9  F  1  Z    0.000000   0.148303   0.000000   0.000000   0.610643
   10  N  2  S    0.160273   0.000000  -0.047815  -0.038008   0.000000
   11  N  2  S   -0.154921   0.000000   0.041617   0.042210   0.000000
   12  N  2  X   -0.004030   0.000000   0.118111  -0.178233   0.000000
   13  N  2  Y    0.078156   0.000000   0.265361   0.107512   0.000000
   14  N  2  Z    0.000000   0.386450   0.000000   0.000000  -0.134235
   15  N  2  S   -0.505492   0.000000   0.237856   0.140668   0.000000
   16  N  2  X   -0.014550   0.000000   0.138957  -0.213570   0.000000
   17  N  2  Y    0.077371   0.000000   0.291908   0.147468   0.000000
   18  N  2  Z    0.000000   0.311696   0.000000   0.000000  -0.100035
   19  H  3  S   -0.109474  -0.222256  -0.079290   0.011795   0.088700
   20  H  3  S   -0.006373  -0.169886  -0.084867   0.003205   0.031355
   21  H  4  S   -0.109474   0.222256  -0.079290   0.011795  -0.088700
   22  H  4  S   -0.006373   0.169886  -0.084867   0.003205  -0.031355
   23  O  5  S   -0.156270   0.000000   0.009827   0.004919   0.000000
   24  O  5  S    0.140980   0.000000  -0.008907  -0.006619   0.000000
   25  O  5  X   -0.038558   0.000000  -0.072327   0.137750   0.000000
   26  O  5  Y    0.041799   0.000000   0.073078  -0.026510   0.000000
   27  O  5  Z    0.000000   0.037017   0.000000   0.000000  -0.034308
   28  O  5  S    0.505923   0.000000  -0.050580  -0.003553   0.000000
   29  O  5  X   -0.021136   0.000000  -0.061797   0.158047   0.000000
   30  O  5  Y    0.040174   0.000000   0.075044  -0.027394   0.000000
   31  O  5  Z    0.000000   0.037004   0.000000   0.000000  -0.048641
   32  H  6  S    0.098794   0.000000   0.066082  -0.061283   0.000000
   33  H  6  S    0.048927   0.000000   0.082062  -0.064176   0.000000

                     11         12         13         14         15
                   -0.2364    -0.2012    -0.1070    -0.0668     0.4928
                     A'         A'         A''        A'         A'  
    1  F  1  S    0.004067  -0.000760   0.000000  -0.012032  -0.006770
    2  F  1  S   -0.003842  -0.003756   0.000000   0.005999   0.005002
    3  F  1  X   -0.098494  -0.080762   0.000000  -0.213911   0.037883
    4  F  1  Y    0.247350  -0.267221   0.000000   0.060304  -0.021239
    5  F  1  Z    0.000000   0.000000   0.029473   0.000000   0.000000
    6  F  1  S   -0.023300   0.019762   0.000000   0.069550   0.050694
    7  F  1  X   -0.120362  -0.114343   0.000000  -0.295719   0.046415
    8  F  1  Y    0.300231  -0.320200   0.000000   0.081265  -0.032548
    9  F  1  Z    0.000000   0.000000   0.031503   0.000000   0.000000
   10  N  2  S    0.044231  -0.039841   0.000000   0.062120  -0.121417
   11  N  2  S   -0.047027   0.036934   0.000000  -0.070097   0.032019
   12  N  2  X    0.076383  -0.014651   0.000000  -0.029026   0.008645
   13  N  2  Y   -0.146793   0.326970   0.000000  -0.065787  -0.172631
   14  N  2  Z    0.000000   0.000000  -0.077205   0.000000   0.000000
   15  N  2  S   -0.188059   0.183875   0.000000  -0.235214   1.331908
   16  N  2  X    0.070965  -0.053960   0.000000  -0.074363  -0.060703
   17  N  2  Y   -0.161939   0.355127   0.000000  -0.078020  -0.538142
   18  N  2  Z    0.000000   0.000000  -0.091463   0.000000   0.000000
   19  H  3  S    0.014499  -0.098851   0.040417  -0.038721  -0.049367
   20  H  3  S    0.036714  -0.033819  -0.045480  -0.008231  -1.016347
   21  H  4  S    0.014499  -0.098851  -0.040417  -0.038721  -0.049367
   22  H  4  S    0.036714  -0.033819   0.045480  -0.008231  -1.016347
   23  O  5  S   -0.071854  -0.045808   0.000000  -0.001579  -0.039304
   24  O  5  S    0.053734   0.032096   0.000000  -0.003488   0.015466
   25  O  5  X    0.009108   0.112734   0.000000   0.403834  -0.010298
   26  O  5  Y   -0.293506  -0.189690   0.000000   0.158576   0.042564
   27  O  5  Z    0.000000   0.000000   0.494505   0.000000   0.000000
   28  O  5  S    0.359761   0.244480   0.000000   0.021847   0.323470
   29  O  5  X   -0.005103   0.130947   0.000000   0.540101   0.001106
   30  O  5  Y   -0.327842  -0.204695   0.000000   0.217009   0.113617
   31  O  5  Z    0.000000   0.000000   0.645869   0.000000   0.000000
   32  H  6  S   -0.189519  -0.161663   0.000000   0.000487  -0.009969
   33  H  6  S   -0.229526  -0.178241   0.000000  -0.037300  -0.336597

                     16         17         18         19         20
                    0.5106     0.5743     0.6027     1.3940     1.5081
                     A'         A''        A'         A''        A'  
    1  F  1  S    0.049697   0.000000   0.014789   0.000000  -0.001093
    2  F  1  S   -0.046324   0.000000  -0.013159   0.000000   0.018016
    3  F  1  X    0.250287   0.000000   0.087227   0.000000  -0.034370
    4  F  1  Y   -0.049123   0.000000  -0.022029   0.000000   0.020108
    5  F  1  Z    0.000000   0.023896   0.000000  -0.101859   0.000000
    6  F  1  S   -0.285783   0.000000  -0.087784   0.000000  -0.040074
    7  F  1  X    0.397075   0.000000   0.144040   0.000000   0.048382
    8  F  1  Y   -0.075736   0.000000  -0.033881   0.000000   0.008554
    9  F  1  Z    0.000000   0.038818   0.000000  -0.068041   0.000000
   10  N  2  S   -0.007777   0.000000  -0.030572   0.000000  -0.008774
   11  N  2  S    0.016831   0.000000   0.007468   0.000000   0.053109
   12  N  2  X    0.452427   0.000000   0.178824   0.000000  -0.175595
   13  N  2  Y    0.020685   0.000000  -0.065660   0.000000   0.517593
   14  N  2  Z    0.000000   0.300616   0.000000  -0.031692   0.000000
   15  N  2  S   -0.073124   0.000000   0.357604   0.000000   0.100538
   16  N  2  X    0.673977   0.000000   0.269797   0.000000   0.146120
   17  N  2  Y    0.074101   0.000000  -0.181301   0.000000  -0.411511
   18  N  2  Z    0.000000   0.978439   0.000000   0.719462   0.000000
   19  H  3  S    0.009765   0.046321  -0.027646   0.939806   0.144572
   20  H  3  S    0.154825   1.308430  -0.306395  -0.526695  -0.184806
   21  H  4  S    0.009765  -0.046321  -0.027646  -0.939806   0.144572
   22  H  4  S    0.154825  -1.308430  -0.306395   0.526695  -0.184806
   23  O  5  S   -0.054825   0.000000   0.056360   0.000000   0.029040
   24  O  5  S    0.036623   0.000000   0.000501   0.000000  -0.027970
   25  O  5  X    0.153354   0.000000   0.171859   0.000000   0.072554
   26  O  5  Y    0.110731   0.000000  -0.215432   0.000000  -0.183791
   27  O  5  Z    0.000000   0.060072   0.000000  -0.083011   0.000000
   28  O  5  S    0.378225   0.000000  -0.634654   0.000000  -0.012555
   29  O  5  X    0.207644   0.000000   0.358725   0.000000   0.165680
   30  O  5  Y    0.238901   0.000000  -0.555546   0.000000  -0.309997
   31  O  5  Z    0.000000   0.115131   0.000000  -0.042464   0.000000
   32  H  6  S    0.015703   0.000000   0.007712   0.000000   1.137634
   33  H  6  S   -0.418048   0.000000   1.278595   0.000000  -0.591265

                     21         22         23         24         25
                    1.5810     1.6533     1.7685     1.8822     2.1661
                     A'         A'         A''        A'         A'' 
    1  F  1  S   -0.025574   0.001123   0.000000   0.045515   0.000000
    2  F  1  S    0.062944  -0.000584   0.000000  -0.072485   0.000000
    3  F  1  X   -0.088676  -0.038196   0.000000  -0.016519   0.000000
    4  F  1  Y   -0.054063  -0.104649   0.000000  -0.001994   0.000000
    5  F  1  Z    0.000000   0.000000  -0.050339   0.000000  -0.102877
    6  F  1  S    0.093583  -0.013190   0.000000  -0.326978   0.000000
    7  F  1  X   -0.064000   0.007624   0.000000   0.324930   0.000000
    8  F  1  Y   -0.008613  -0.026137   0.000000  -0.052503   0.000000
    9  F  1  Z    0.000000   0.000000  -0.023687   0.000000   0.066383
   10  N  2  S    0.086970   0.042522   0.000000  -0.017648   0.000000
   11  N  2  S   -0.223536  -0.119130   0.000000   0.041567   0.000000
   12  N  2  X    0.076453  -0.181214   0.000000  -1.008466   0.000000
   13  N  2  Y    0.211939  -0.890610   0.000000   0.058702   0.000000
   14  N  2  Z    0.000000   0.000000  -1.103862   0.000000  -0.020689
   15  N  2  S    0.026535  -0.221341   0.000000   0.056064   0.000000
   16  N  2  X   -0.001610   0.206028   0.000000   1.242078   0.000000
   17  N  2  Y    0.244032   1.091444   0.000000  -0.109695   0.000000
   18  N  2  Z    0.000000   0.000000   1.446587   0.000000   0.041579
   19  H  3  S    0.933400   0.206173  -0.147684  -0.034232   0.085741
   20  H  3  S   -0.544543   0.141015   0.811064   0.017527  -0.168856
   21  H  4  S    0.933400   0.206173   0.147684  -0.034232  -0.085741
   22  H  4  S   -0.544543   0.141015  -0.811064   0.017527   0.168856
   23  O  5  S   -0.032000   0.001431   0.000000  -0.045998   0.000000
   24  O  5  S    0.077865   0.007435   0.000000   0.134210   0.000000
   25  O  5  X    0.100436   0.026307   0.000000   0.290278   0.000000
   26  O  5  Y    0.003088  -0.199649   0.000000   0.121704   0.000000
   27  O  5  Z    0.000000   0.000000  -0.017814   0.000000   1.035076
   28  O  5  S    0.059844   0.076327   0.000000   0.061445   0.000000
   29  O  5  X    0.023249   0.138573   0.000000   0.005730   0.000000
   30  O  5  Y    0.066064  -0.079927   0.000000   0.028819   0.000000
   31  O  5  Z    0.000000   0.000000   0.016888   0.000000  -0.973280
   32  H  6  S   -0.318199   0.574595   0.000000  -0.332664   0.000000
   33  H  6  S    0.236130  -0.412769   0.000000   0.339055   0.000000

                     26         27         28         29         30
                    2.2551     2.3646     2.5982     2.6016     2.7066
                     A'         A'         A''        A'         A'  
    1  F  1  S    0.022066   0.023364   0.000000   0.005715  -0.014725
    2  F  1  S   -0.069385  -0.067929   0.000000  -0.021144   0.100942
    3  F  1  X    0.090716   0.042569   0.000000   0.212979   0.842452
    4  F  1  Y    0.053615  -0.224784   0.000000   0.952199  -0.247095
    5  F  1  Z    0.000000   0.000000   1.009289   0.000000   0.000000
    6  F  1  S   -0.085596  -0.107412   0.000000  -0.014877  -0.041099
    7  F  1  X    0.048314   0.114936   0.000000  -0.167452  -0.820362
    8  F  1  Y   -0.054149   0.159943   0.000000  -0.943368   0.252557
    9  F  1  Z    0.000000   0.000000  -0.993283   0.000000   0.000000
   10  N  2  S    0.014222   0.027683   0.000000   0.017335   0.034280
   11  N  2  S   -0.193431  -0.360521   0.000000  -0.333230  -0.728935
   12  N  2  X   -0.184532  -0.237332   0.000000  -0.052614  -0.045335
   13  N  2  Y    0.129475   0.048156   0.000000  -0.073687   0.086889
   14  N  2  Z    0.000000   0.000000  -0.068901   0.000000   0.000000
   15  N  2  S    0.191845   0.446659   0.000000   0.421519   0.829877
   16  N  2  X    0.382660   0.535970   0.000000   0.092602  -0.302633
   17  N  2  Y   -0.220933  -0.085975   0.000000   0.158820  -0.236066
   18  N  2  Z    0.000000   0.000000   0.222023   0.000000   0.000000
   19  H  3  S   -0.046138   0.079516   0.125422   0.081128  -0.088063
   20  H  3  S   -0.044873  -0.263705  -0.108664  -0.175344  -0.201931
   21  H  4  S   -0.046138   0.079516  -0.125422   0.081128  -0.088063
   22  H  4  S   -0.044873  -0.263705   0.108664  -0.175344  -0.201931
   23  O  5  S   -0.044345   0.002727   0.000000   0.001428   0.031823
   24  O  5  S    0.207126   0.030186   0.000000   0.011480  -0.283102
   25  O  5  X   -0.446983  -0.846479   0.000000  -0.097873   0.238428
   26  O  5  Y   -0.877085   0.507580   0.000000   0.158638  -0.024091
   27  O  5  Z    0.000000   0.000000   0.100277   0.000000   0.000000
   28  O  5  S    0.013026  -0.139704   0.000000  -0.031361   0.246017
   29  O  5  X    0.440246   1.010084   0.000000   0.146373  -0.381385
   30  O  5  Y    0.984061  -0.636051   0.000000  -0.233228   0.047578
   31  O  5  Z    0.000000   0.000000  -0.125798   0.000000   0.000000
   32  H  6  S   -0.303612   0.132136   0.000000   0.094492   0.014614
   33  H  6  S   -0.016618   0.388784   0.000000   0.046891  -0.191436

                     31         32         33
                    2.8947     3.5351     4.1683
                     A'         A'         A'  
    1  F  1  S    0.069512   0.005132   0.103465
    2  F  1  S   -0.403992  -0.044782  -1.473135
    3  F  1  X   -0.500917   0.018780   0.260959
    4  F  1  Y   -0.008166   0.062943  -0.032725
    5  F  1  Z    0.000000   0.000000   0.000000
    6  F  1  S    0.103436   0.003616   1.587537
    7  F  1  X    0.747036  -0.018297  -0.617132
    8  F  1  Y   -0.003469  -0.101266   0.074344
    9  F  1  Z    0.000000   0.000000   0.000000
   10  N  2  S   -0.003914   0.016891   0.035581
   11  N  2  S   -1.345201   0.673131   0.533162
   12  N  2  X    0.040743  -0.207465   0.164285
   13  N  2  Y    0.126750  -0.051529  -0.040078
   14  N  2  Z    0.000000   0.000000   0.000000
   15  N  2  S    2.057778  -1.019842  -0.980738
   16  N  2  X    0.074247   0.523812  -0.682439
   17  N  2  Y   -0.568174   0.306446   0.286664
   18  N  2  Z    0.000000   0.000000   0.000000
   19  H  3  S   -0.307476   0.277803   0.234613
   20  H  3  S   -0.371548   0.056207   0.056449
   21  H  4  S   -0.307476   0.277803   0.234613
   22  H  4  S   -0.371548   0.056207   0.056449
   23  O  5  S    0.042668   0.080055  -0.004132
   24  O  5  S   -0.448235  -1.494361   0.177657
   25  O  5  X    0.189794  -0.176718   0.042276
   26  O  5  Y   -0.063860  -0.157942   0.040051
   27  O  5  Z    0.000000   0.000000   0.000000
   28  O  5  S    0.431791   1.699130  -0.242056
   29  O  5  X   -0.348057   0.337742  -0.107195
   30  O  5  Y    0.128843   0.424647  -0.107203
   31  O  5  Z    0.000000   0.000000   0.000000
   32  H  6  S   -0.035280  -0.289739   0.081605
   33  H  6  S   -0.213108  -0.283692  -0.017725
 ...... END OF RHF CALCULATION ......
 STEP CPU TIME =     0.02 TOTAL CPU TIME =        0.1 (    0.0 MIN)
 TOTAL WALL CLOCK TIME=        0.8 SECONDS, CPU UTILIZATION IS  17.95%

     ----------------------------------------------------------------
     PROPERTY VALUES FOR THE RHF   SELF-CONSISTENT FIELD WAVEFUNCTION
     ----------------------------------------------------------------

          -----------------
          ENERGY COMPONENTS
          -----------------

         WAVEFUNCTION NORMALIZATION =       1.0000000000

                ONE ELECTRON ENERGY =    -468.5920594164
                TWO ELECTRON ENERGY =     168.1912575182
           NUCLEAR REPULSION ENERGY =      71.3651640667
                                      ------------------
                       TOTAL ENERGY =    -229.0356378315

 ELECTRON-ELECTRON POTENTIAL ENERGY =     168.1912575182
  NUCLEUS-ELECTRON POTENTIAL ENERGY =    -697.6150061875
   NUCLEUS-NUCLEUS POTENTIAL ENERGY =      71.3651640667
                                      ------------------
             TOTAL POTENTIAL ENERGY =    -458.0585846027
               TOTAL KINETIC ENERGY =     229.0229467711
                 VIRIAL RATIO (V/T) =       2.0000554139

          ---------------------------------------
          MULLIKEN AND LOWDIN POPULATION ANALYSES
          ---------------------------------------

     ATOMIC MULLIKEN POPULATION IN EACH MOLECULAR ORBITAL

                      1          2          3          4          5

                  2.000000   2.000000   2.000000   2.000000   2.000000

    1             1.999194   0.000000   0.000256   1.772651   0.104677
    2             0.000783   0.000243   1.995661   0.203367   0.645126
    3             0.000011   0.000022   0.001995   0.011373   0.067882
    4             0.000011   0.000022   0.001995   0.011373   0.067882
    5             0.000000   1.998459   0.000086   0.001187   1.004554
    6             0.000000   0.001254   0.000006   0.000049   0.109880

                      6          7          8          9         10

                  2.000000   2.000000   2.000000   2.000000   2.000000

    1             0.141916   0.155012   0.919675   1.293094   1.832527
    2             0.818081   1.085747   0.826504   0.489575   0.089029
    3             0.081556   0.371987   0.054849   0.000487   0.032767
    4             0.081556   0.371987   0.054849   0.000487   0.032767
    5             0.766342   0.015266   0.099591   0.187922   0.012910
    6             0.110548   0.000000   0.044532   0.028436   0.000000

                     11         12         13         14

                  2.000000   2.000000   2.000000   2.000000

    1             0.501839   0.511531   0.004694   0.344808
    2             0.266330   0.755561   0.026200   0.120142
    3             0.003794   0.040391   0.007403   0.004469
    4             0.003794   0.040391   0.007403   0.004469
    5             0.906147   0.460230   1.954301   1.523393
    6             0.318097   0.191896   0.000000   0.002719

               ----- POPULATIONS IN EACH AO -----
                             MULLIKEN      LOWDIN
              1  F  1  S      1.98458     1.98137
              2  F  1  S      0.43215     0.60937
              3  F  1  X      0.69153     0.69884
              4  F  1  Y      0.87934     0.89466
              5  F  1  Z      0.88303     0.89876
              6  F  1  S      1.56169     1.31809
              7  F  1  X      0.93955     0.93684
              8  F  1  Y      1.10080     1.08634
              9  F  1  Z      1.10920     1.09196
             10  N  2  S      1.99001     1.98275
             11  N  2  S      0.43115     0.58499
             12  N  2  X      0.22162     0.21211
             13  N  2  Y      0.75656     0.75288
             14  N  2  Z      0.60843     0.57155
             15  N  2  S      1.40006     0.93035
             16  N  2  X      0.39432     0.49090
             17  N  2  Y      0.92765     0.93401
             18  N  2  Z      0.59254     0.64956
             19  H  3  S      0.48097     0.48839
             20  H  3  S      0.19802     0.34509
             21  H  4  S      0.48097     0.48839
             22  H  4  S      0.19802     0.34509
             23  O  5  S      1.98553     1.98113
             24  O  5  S      0.40525     0.58411
             25  O  5  X      0.68124     0.69504
             26  O  5  Y      0.55212     0.53907
             27  O  5  Z      0.81675     0.83981
             28  O  5  S      1.53119     1.20025
             29  O  5  X      0.99355     0.97797
             30  O  5  Y      0.79902     0.84228
             31  O  5  Z      1.16573     1.14393
             32  H  6  S      0.45633     0.47292
             33  H  6  S      0.35109     0.43120

          ----- MULLIKEN ATOMIC OVERLAP POPULATIONS -----
          (OFF-DIAGONAL ELEMENTS NEED TO BE MULTIPLIED BY 2)

             1           2           3           4           5

    1    9.5728521
    2    0.0277693   6.6744009
    3   -0.0095544   0.3048897   0.4131976
    4   -0.0095544   0.3048897  -0.0352117   0.4131976
    5    0.0004325   0.0158726   0.0076611   0.0076611   8.6941520
    6   -0.0000711  -0.0054755  -0.0019948  -0.0019948   0.2046090

             6

    6    0.6123429

          TOTAL MULLIKEN AND LOWDIN ATOMIC POPULATIONS
       ATOM         MULL.POP.    CHARGE          LOW.POP.     CHARGE
    1 F             9.581874   -0.581874         9.516225   -0.516225
    2 N             7.322347   -0.322347         7.109102   -0.109102
    3 H             0.678988    0.321012         0.833478    0.166522
    4 H             0.678988    0.321012         0.833478    0.166522
    5 O             8.930388   -0.930388         8.803591   -0.803591
    6 H             0.807416    0.192584         0.904126    0.095874

          -------------------------------
          BOND ORDER AND VALENCE ANALYSIS     BOND ORDER THRESHOLD=0.050
          -------------------------------

                   BOND                       BOND                       BOND
  ATOM PAIR DIST  ORDER      ATOM PAIR DIST  ORDER      ATOM PAIR DIST  ORDER
    1   2  1.613  0.518        1   5  3.504  0.076        2   3  0.997  0.840
    2   4  0.997  0.840        2   5  1.936  0.308        5   6  0.983  0.920

                       TOTAL       BONDED        FREE
      ATOM            VALENCE     VALENCE     VALENCE
    1 F                 0.622       0.622       0.000
    2 N                 2.508       2.508       0.000
    3 H                 0.884       0.884       0.000
    4 H                 0.884       0.884       0.000
    5 O                 1.356       1.356       0.000
    6 H                 0.928       0.928       0.000

          ---------------------
          ELECTROSTATIC MOMENTS
          ---------------------

[...]
   30  O  5  Y    0.000000   0.045049   0.000000   0.182017   0.275264
   31  O  5  Z   -0.128137   0.000000   0.627878   0.000000   0.000000
   32  H  6  S    0.000000   0.052274   0.000000  -0.004242   0.004357
   33  H  6  S    0.000000   0.050234   0.000000  -0.040467  -0.527460

                     16         17         18         19         20
                    0.4906     0.5691     0.5732     1.3860     1.4772
                     A'         A'         A''        A''        A'  
    1  F  1  S   -0.022875   0.007796   0.000000   0.000000  -0.000431
    2  F  1  S    0.019923  -0.007431   0.000000   0.000000   0.008456
    3  F  1  X   -0.080571   0.059797   0.000000   0.000000  -0.017783
    4  F  1  Y   -0.000239  -0.018601   0.000000   0.000000   0.015731
    5  F  1  Z    0.000000   0.000000   0.028141  -0.093130   0.000000
    6  F  1  S    0.128752  -0.037075   0.000000   0.000000  -0.015085
    7  F  1  X   -0.135963   0.090412   0.000000   0.000000   0.023583
    8  F  1  Y   -0.000981  -0.027189   0.000000   0.000000   0.002512
    9  F  1  Z    0.000000   0.000000   0.044841  -0.037472   0.000000
   10  N  2  S   -0.110323  -0.034078   0.000000   0.000000  -0.011436
   11  N  2  S    0.023889   0.006067   0.000000   0.000000   0.068363
   12  N  2  X   -0.194674   0.155058   0.000000   0.000000  -0.139104
   13  N  2  Y   -0.157543  -0.083330   0.000000   0.000000   0.438068
   14  N  2  Z    0.000000   0.000000   0.301734  -0.038126   0.000000
   15  N  2  S    1.242681   0.436657   0.000000   0.000000   0.064644
   16  N  2  X   -0.330105   0.236764   0.000000   0.000000   0.082515
   17  N  2  Y   -0.499386  -0.238151   0.000000   0.000000  -0.330883
   18  N  2  Z    0.000000   0.000000   0.977532   0.723291   0.000000
   19  H  3  S   -0.042458  -0.037180   0.045971   0.937813   0.093697
   20  H  3  S   -0.953684  -0.411228   1.310348  -0.522693  -0.130766
   21  H  4  S   -0.042458  -0.037180  -0.045971  -0.937813   0.093697
   22  H  4  S   -0.953684  -0.411228  -1.310348   0.522693  -0.130766
   23  O  5  S   -0.016167   0.052044   0.000000   0.000000   0.033521
   24  O  5  S   -0.002267   0.000866   0.000000   0.000000  -0.041642
   25  O  5  X   -0.111553   0.176226   0.000000   0.000000   0.047048
   26  O  5  Y    0.008621  -0.211708   0.000000   0.000000  -0.204494
   27  O  5  Z    0.000000   0.000000   0.059507  -0.077822   0.000000
   28  O  5  S    0.187581  -0.595234   0.000000   0.000000  -0.005419
   29  O  5  X   -0.158815   0.371143   0.000000   0.000000   0.166134
   30  O  5  Y    0.045280  -0.538296   0.000000   0.000000  -0.306111
   31  O  5  Z    0.000000   0.000000   0.117698  -0.059732   0.000000
   32  H  6  S   -0.017989   0.020882   0.000000   0.000000   1.209572
   33  H  6  S   -0.252690   1.258748   0.000000   0.000000  -0.663546

                     21         22         23         24         25
                    1.5672     1.6426     1.7637     1.9018     2.1160
                     A'         A'         A''        A'         A'' 
    1  F  1  S   -0.024502  -0.000150   0.000000   0.043659   0.000000
    2  F  1  S    0.061862  -0.000452   0.000000  -0.101002   0.000000
    3  F  1  X   -0.099894  -0.025045   0.000000   0.105211   0.000000
    4  F  1  Y   -0.043672  -0.094801   0.000000  -0.040723   0.000000
    5  F  1  Z    0.000000   0.000000  -0.045534   0.000000  -0.072772
    6  F  1  S    0.075226   0.000323   0.000000  -0.180564   0.000000
    7  F  1  X   -0.056353  -0.003231   0.000000   0.183887   0.000000
    8  F  1  Y    0.002088  -0.000850   0.000000  -0.022507   0.000000
    9  F  1  Z    0.000000   0.000000   0.001287   0.000000   0.042168
   10  N  2  S    0.082970   0.044276   0.000000   0.013534   0.000000
   11  N  2  S   -0.198273  -0.116221   0.000000  -0.080683   0.000000
   12  N  2  X    0.178279  -0.112927   0.000000  -1.039095   0.000000
   13  N  2  Y    0.234996  -0.924220   0.000000   0.079340   0.000000
   14  N  2  Z    0.000000   0.000000  -1.102341   0.000000  -0.023190
   15  N  2  S    0.023376  -0.246464   0.000000   0.058614   0.000000
   16  N  2  X   -0.066667   0.147847   0.000000   1.218132   0.000000
   17  N  2  Y    0.223841   1.126947   0.000000  -0.053653   0.000000
   18  N  2  Z    0.000000   0.000000   1.438404   0.000000   0.054415
   19  H  3  S    0.937760   0.200457  -0.155542   0.111182   0.082875
   20  H  3  S   -0.551706   0.154771   0.817040  -0.087046  -0.179948
   21  H  4  S    0.937760   0.200457   0.155542   0.111182  -0.082875
   22  H  4  S   -0.551706   0.154771  -0.817040  -0.087046   0.179948
   23  O  5  S   -0.028108   0.000620   0.000000  -0.047562   0.000000
   24  O  5  S    0.072785   0.000174   0.000000   0.127794   0.000000
   25  O  5  X    0.095187  -0.011779   0.000000   0.208739   0.000000
   26  O  5  Y   -0.009649  -0.203593   0.000000   0.051899   0.000000
   27  O  5  Z    0.000000   0.000000  -0.019468   0.000000   1.035300
   28  O  5  S    0.064041   0.096454   0.000000   0.126785   0.000000
   29  O  5  X    0.038486   0.153391   0.000000   0.120508   0.000000
   30  O  5  Y    0.023410  -0.054735   0.000000   0.061317   0.000000
   31  O  5  Z    0.000000   0.000000   0.011537   0.000000  -0.987776
   32  H  6  S   -0.198561   0.512013   0.000000  -0.269443   0.000000
   33  H  6  S    0.166873  -0.401317   0.000000   0.302597   0.000000

                     26         27         28         29         30
                    2.1989     2.3104     2.6413     2.6552     2.6774
                     A'         A'         A'         A''        A'  
    1  F  1  S    0.014916   0.013213   0.000343   0.000000  -0.005450
    2  F  1  S   -0.053850  -0.044695  -0.003327   0.000000   0.028710
    3  F  1  X    0.122369   0.096467   0.517539   0.000000   0.451775
    4  F  1  Y    0.025621  -0.145426   0.709478   0.000000  -0.706502
    5  F  1  Z    0.000000   0.000000   0.000000   1.014783   0.000000
    6  F  1  S   -0.025574  -0.029485   0.014436   0.000000   0.007456
    7  F  1  X   -0.025274  -0.005132  -0.473424   0.000000  -0.430475
    8  F  1  Y   -0.024461   0.096117  -0.676538   0.000000   0.686126
    9  F  1  Z    0.000000   0.000000   0.000000  -0.973539   0.000000
   10  N  2  S    0.024075   0.035378   0.026049   0.000000   0.015377
   11  N  2  S   -0.227927  -0.335463  -0.793075   0.000000  -0.727068
   12  N  2  X   -0.063808  -0.116082   0.059563   0.000000   0.124921
   13  N  2  Y    0.147210   0.031605  -0.010346   0.000000   0.120240
   14  N  2  Z    0.000000   0.000000   0.000000  -0.066084   0.000000
   15  N  2  S    0.174868   0.350763   1.050568   0.000000   0.988307
   16  N  2  X    0.248381   0.367449  -0.241444   0.000000  -0.419522
   17  N  2  Y   -0.238408  -0.011950  -0.082944   0.000000  -0.362996
   18  N  2  Z    0.000000   0.000000   0.000000   0.174394   0.000000
   19  H  3  S   -0.027406   0.108695  -0.027999   0.110415  -0.167313
   20  H  3  S   -0.069378  -0.273947  -0.278618  -0.095465  -0.175103
   21  H  4  S   -0.027406   0.108695  -0.027999  -0.110415  -0.167313
   22  H  4  S   -0.069378  -0.273947  -0.278618   0.095465  -0.175103
   23  O  5  S   -0.037895   0.009591   0.030375   0.000000   0.044550
   24  O  5  S    0.176915  -0.008067  -0.229229   0.000000  -0.380692
   25  O  5  X   -0.545014  -0.822268   0.129199   0.000000   0.260247
   26  O  5  Y   -0.829802   0.593208   0.064980   0.000000  -0.087784
   27  O  5  Z    0.000000   0.000000   0.000000   0.069545   0.000000
   28  O  5  S    0.013895  -0.120577   0.162009   0.000000   0.300786
   29  O  5  X    0.516812   0.984894  -0.254789   0.000000  -0.496950
   30  O  5  Y    0.931465  -0.754619  -0.103349   0.000000   0.143090
   31  O  5  Z    0.000000   0.000000   0.000000  -0.096141   0.000000
   32  H  6  S   -0.281812   0.186076   0.084059   0.000000  -0.010520
   33  H  6  S   -0.006999   0.375464  -0.153825   0.000000  -0.262908

                     31         32         33
                    2.9542     3.5375     4.0776
                     A'         A'         A'  
    1  F  1  S    0.062536   0.008345  -0.116461
    2  F  1  S   -0.405491  -0.063166   1.440573
    3  F  1  X   -0.716364   0.026972  -0.245132
    4  F  1  Y    0.052188   0.061998   0.034874
    5  F  1  Z    0.000000   0.000000   0.000000
    6  F  1  S    0.190338   0.019349  -1.391785
    7  F  1  X    0.872201  -0.013732   0.464929
    8  F  1  Y   -0.066278  -0.091092  -0.064225
    9  F  1  Z    0.000000   0.000000   0.000000
   10  N  2  S   -0.002480   0.023491  -0.015048
   11  N  2  S   -1.093501   0.770762  -0.412093
   12  N  2  X   -0.030955  -0.197727  -0.217429
   13  N  2  Y    0.102006  -0.051725   0.038689
   14  N  2  Z    0.000000   0.000000   0.000000
   15  N  2  S    1.637929  -1.210866   0.639523
   16  N  2  X    0.148990   0.600893   0.570924
   17  N  2  Y   -0.449721   0.338782  -0.198261
   18  N  2  Z    0.000000   0.000000   0.000000
   19  H  3  S   -0.249917   0.311025  -0.161645
   20  H  3  S   -0.294302   0.069064  -0.038900
   21  H  4  S   -0.249917   0.311025  -0.161645
   22  H  4  S   -0.294302   0.069064  -0.038900
   23  O  5  S    0.035507   0.071903   0.004530
   24  O  5  S   -0.387335  -1.487721  -0.194633
   25  O  5  X    0.076810  -0.180849  -0.043400
   26  O  5  Y   -0.050628  -0.153425  -0.036058
   27  O  5  Z    0.000000   0.000000   0.000000
   28  O  5  S    0.370206   1.757198   0.271311
   29  O  5  X   -0.198517   0.419417   0.119309
   30  O  5  Y    0.107050   0.429135   0.103572
   31  O  5  Z    0.000000   0.000000   0.000000
   32  H  6  S   -0.038415  -0.307701  -0.078555
   33  H  6  S   -0.151326  -0.249323   0.012927
 ...... END OF RHF CALCULATION ......
 STEP CPU TIME =     0.02 TOTAL CPU TIME =        0.7 (    0.0 MIN)
 TOTAL WALL CLOCK TIME=        3.3 SECONDS, CPU UTILIZATION IS  20.30%

     ----------------------------------------------------------------
     PROPERTY VALUES FOR THE RHF   SELF-CONSISTENT FIELD WAVEFUNCTION
     ----------------------------------------------------------------

          -----------------
          ENERGY COMPONENTS
          -----------------

         WAVEFUNCTION NORMALIZATION =       1.0000000000

                ONE ELECTRON ENERGY =    -464.9538299857
                TWO ELECTRON ENERGY =     166.4798010559
           NUCLEAR REPULSION ENERGY =      69.4367811158
                                      ------------------
                       TOTAL ENERGY =    -229.0372478139

 ELECTRON-ELECTRON POTENTIAL ENERGY =     166.4798010559
  NUCLEUS-ELECTRON POTENTIAL ENERGY =    -693.8728368701
   NUCLEUS-NUCLEUS POTENTIAL ENERGY =      69.4367811158
                                      ------------------
             TOTAL POTENTIAL ENERGY =    -457.9562546983
               TOTAL KINETIC ENERGY =     228.9190068844
                 VIRIAL RATIO (V/T) =       2.0005165186

          ---------------------------------------
          MULLIKEN AND LOWDIN POPULATION ANALYSES
          ---------------------------------------

     ATOMIC MULLIKEN POPULATION IN EACH MOLECULAR ORBITAL

                      1          2          3          4          5

                  2.000000   2.000000   2.000000   2.000000   2.000000

    1             1.999668   0.000000   0.000071   1.795712   0.091513
    2             0.000316   0.000382   1.995848   0.164552   0.438531
    3             0.000008   0.000028   0.001944   0.013630   0.042810
    4             0.000008   0.000028   0.001944   0.013630   0.042810
    5             0.000000   1.998335   0.000180   0.011736   1.257607
    6             0.000000   0.001228   0.000013   0.000739   0.126729

                      6          7          8          9         10

                  2.000000   2.000000   2.000000   2.000000   2.000000

    1             0.103357   0.029747   0.157520   0.472220   0.633104
    2             1.065890   1.135862   0.723770   0.961650   0.387654
    3             0.111055   0.396091   0.030498   0.028256   0.012481
    4             0.111055   0.396091   0.030498   0.028256   0.012481
    5             0.526693   0.042209   0.756363   0.432478   0.799663
    6             0.081951   0.000000   0.301352   0.077140   0.154616

                     11         12         13         14

                  2.000000   2.000000   2.000000   2.000000

    1             1.901336   1.609582   0.061058   0.822759
    2             0.011409   0.291119   0.051207   0.116468
    3             0.005094   0.018407   0.010990   0.004899
    4             0.005094   0.018407   0.010990   0.004899
    5             0.077068   0.046653   1.865754   1.046923
    6             0.000000   0.015833   0.000000   0.004051

               ----- POPULATIONS IN EACH AO -----
                             MULLIKEN      LOWDIN
              1  F  1  S      1.98423     1.98132
              2  F  1  S      0.42699     0.60390
              3  F  1  X      0.72300     0.73308
              4  F  1  Y      0.86505     0.88142
              5  F  1  Z      0.86659     0.88318
              6  F  1  S      1.57152     1.36490
              7  F  1  X      0.99445     0.98387
              8  F  1  Y      1.12027     1.10482
              9  F  1  Z      1.12555     1.10884
             10  N  2  S      1.98998     1.98314
             11  N  2  S      0.43665     0.58905
             12  N  2  X      0.20944     0.20175
             13  N  2  Y      0.75318     0.74818
             14  N  2  Z      0.60864     0.57116
             15  N  2  S      1.40573     0.94177
             16  N  2  X      0.43023     0.50345
             17  N  2  Y      0.92097     0.93015
             18  N  2  Z      0.58984     0.64882
             19  H  3  S      0.47910     0.48360
             20  H  3  S      0.19709     0.34415
             21  H  4  S      0.47910     0.48360
             22  H  4  S      0.19709     0.34415
             23  O  5  S      1.98568     1.98114
             24  O  5  S      0.40944     0.58688
             25  O  5  X      0.63754     0.64814
             26  O  5  Y      0.57238     0.55947
             27  O  5  Z      0.83326     0.85518
             28  O  5  S      1.52533     1.18153
             29  O  5  X      0.93400     0.91998
             30  O  5  Y      0.81226     0.84755
             31  O  5  Z      1.15177     1.12990
             32  H  6  S      0.45036     0.46662
             33  H  6  S      0.31329     0.40533

          ----- MULLIKEN ATOMIC OVERLAP POPULATIONS -----
          (OFF-DIAGONAL ELEMENTS NEED TO BE MULTIPLIED BY 2)

             1           2           3           4           5

    1    9.6271982
    2    0.0488580   6.6753077
    3    0.0006858   0.3019141   0.4090129
    4    0.0006858   0.3019141  -0.0357527   0.4090129
    5    0.0002645   0.0255475   0.0017916   0.0017916   8.6158156
    6   -0.0000457  -0.0088838  -0.0014608  -0.0014608   0.2164514

             6

    6    0.5590507

          TOTAL MULLIKEN AND LOWDIN ATOMIC POPULATIONS
       ATOM         MULL.POP.    CHARGE          LOW.POP.     CHARGE
    1 F             9.677647   -0.677647         9.645330   -0.645330
    2 N             7.344658   -0.344658         7.117464   -0.117464
    3 H             0.676191    0.323809         0.827750    0.172250
    4 H             0.676191    0.323809         0.827750    0.172250
    5 O             8.861662   -0.861662         8.709753   -0.709753
    6 H             0.763651    0.236349         0.871954    0.128046

          -------------------------------
          BOND ORDER AND VALENCE ANALYSIS     BOND ORDER THRESHOLD=0.050
          -------------------------------

                   BOND                       BOND                       BOND
  ATOM PAIR DIST  ORDER      ATOM PAIR DIST  ORDER      ATOM PAIR DIST  ORDER
    1   2  1.813  0.399        1   5  3.603  0.089        2   3  0.997  0.840
    2   4  0.997  0.840        2   5  1.836  0.454        5   6  0.983  0.903

                       TOTAL       BONDED        FREE
      ATOM            VALENCE     VALENCE     VALENCE
    1 F                 0.522       0.522       0.000
    2 N                 2.536       2.536       0.000
    3 H                 0.882       0.882       0.000
    4 H                 0.882       0.882       0.000
    5 O                 1.486       1.486       0.000
    6 H                 0.912       0.912       0.000

          ---------------------
          ELECTROSTATIC MOMENTS
          ---------------------

 POINT   1           X           Y           Z (BOHR)    CHARGE
                 0.129149   -0.000236    0.000000       -1.00 (A.U.)
         DX          DY          DZ         /D/  (DEBYE)
    -0.796311   -0.158793    0.000000    0.811989
 ...... END OF PROPERTY EVALUATION ......
 STEP CPU TIME =     0.00 TOTAL CPU TIME =        0.7 (    0.0 MIN)
 TOTAL WALL CLOCK TIME=        3.4 SECONDS, CPU UTILIZATION IS  20.18%

 --------------------------   -----------------------------
 RHF-MP2 ENERGY CALCULATION   PROGRAM WRITTEN BY K.ISHIMURA
 --------------------------   -----------------------------
 NUMBER OF OCCUPIED ORBITALS            =   14
 NUMBER OF CORRELATED OCCUPIED ORBITALS =   11
 NUMBER OF VIRTUAL ORBITALS             =   19
 NUMBER OF BASIS FUNCTIONS              =   33
 NUMBER OF BASIS SHELLS                 =   15
 AO-TRANSFORMED INTEGRAL THRESHOLD      = 1.00E-09
 HALF-TRANSFORMED INTEGRAL THRESHOLD    = 3.24E-10
 TOTAL DISK REQUIRED (ALL PROCESSORS)=              0 MBYTES
                  DISK SPACE PER CORE=              0 MBYTES, USING P=    1
 MEMORY REQUIRED FOR TRANSFORMATION OF 1ST THREE INDICES=       20423
 MEMORY REQUIRED FOR    4TH INDEX TRANSF. AND MP2 ENERGY=       45315
 BEGINNING MP2 INTEGRAL TRANSFORMATION...
 BEGINNING    1ST SHELL LOOP...

 RESULTS OF MOLLER-PLESSET 2ND ORDER CORRECTION ARE
               E(0)=      -229.0372478139
               E(1)=         0.0
               E(2)=        -0.3571018794
             E(MP2)=      -229.3943496933
 SPIN-COMPONENT-SCALED MP2 RESULTS ARE
              E(2S)=        -0.2715201695
              E(2T)=        -0.0855817099
             E(2ST)=        -0.3543514400 = 6/5 * E(2S) + 1/3 * E(2T)
            SCS-MP2=      -229.3915992540
 ..... DONE WITH MP2 ENERGY .....
 STEP CPU TIME =     0.03 TOTAL CPU TIME =        0.7 (    0.0 MIN)
 TOTAL WALL CLOCK TIME=        3.4 SECONDS, CPU UTILIZATION IS  20.70%
 ---- SURFACE MAPPING GEOMETRY ----
 COORD 1= 0.100 COORD 2=-0.100
 HAS ENERGY VALUE    -229.394350
 F      1.80778  -0.07041   0.00000
 N      0.01597   0.20292   0.00000
 H     -0.07495  -0.37176  -0.80925
 H     -0.07495  -0.37176   0.80925
 O     -1.79496  -0.09942   0.00000
 H     -2.13543   0.82263   0.00000
 ----------------------------------
 ... DONE WITH POTENTIAL SURFACE SCAN ...
 STEP CPU TIME =     0.00 TOTAL CPU TIME =        0.7 (    0.0 MIN)
 TOTAL WALL CLOCK TIME=        3.4 SECONDS, CPU UTILIZATION IS  20.70%
                580000  WORDS OF DYNAMIC MEMORY USED
 EXECUTION OF GAMESS TERMINATED NORMALLY Tue Sep 13 13:54:42 2016
 DDI: 263624 bytes (0.3 MB / 0 MWords) used by master data server.

 ----------------------------------------
 CPU timing information for all processes
 ========================================
 0: 0.548 + 0.208 = 0.756
 1: 5.400 + 0.20 = 5.420
 ----------------------------------------
----- accounting info -----
Files used on the master node g4noden2 were:
-rw-r--r-- 1 g4rosendo g4  166350 sep 13 13:54 /scratch/g4rosendo/exam29.dat
-rw-r--r-- 1 g4rosendo g4    1855 sep 13 13:54 /scratch/g4rosendo/exam29.F05
-rw-r--r-- 1 g4rosendo g4  900080 sep 13 13:54 /scratch/g4rosendo/exam29.F08
-rw-r--r-- 1 g4rosendo g4 1799600 sep 13 13:54 /scratch/g4rosendo/exam29.F10
-rw-r--r-- 1 g4rosendo g4       0 sep 13 13:54 /scratch/g4rosendo/exam29.nodes.mpd
mar sep 13 13:54:44 CEST 2016
6.220u 0.476s 0:07.33 91.2%	0+0k 58000+25656io 120pf+0w
