----- GAMESS execution script 'rungms' -----
This job is running on host g4noden2
under operating system Linux at mar sep 13 14:00:20 CEST 2016
Available scratch disk space (Kbyte units) at beginning of the job is
Filesystem           1K-blocks      Used Available Use% Mounted on
/dev/mapper/vgsys-scratch
                     941038652  50796260 890242392   6% /scratch
GAMESS temporary binary files will be written to /scratch/g4rosendo
GAMESS supplementary output files will be written to /scratch/g4rosendo
Copying input file exam43.inp to your run's scratch directory...
MPI kickoff will run GAMESS on 2 cores in 2 nodes.
The binary to be executed is /aplic/gamess/gamess-2013r1_intel11.1_mkl11.1_ompi-1.4.2/gamess.00.x
MPI will run 2 compute processes and 2 data servers,
    placing  of each process type onto each node.
The scratch disk space on each node is /scratch/g4rosendo, with free space
Filesystem           1K-blocks      Used Available Use% Mounted on
/dev/mapper/vgsys-scratch
                     941038652  50796284 890242368   6% /scratch
          ******************************************************
          *         GAMESS VERSION =  1 MAY 2013 (R1)          *
          *             FROM IOWA STATE UNIVERSITY             *
          * M.W.SCHMIDT, K.K.BALDRIDGE, J.A.BOATZ, S.T.ELBERT, *
          *   M.S.GORDON, J.H.JENSEN, S.KOSEKI, N.MATSUNAGA,   *
          *          K.A.NGUYEN, S.J.SU, T.L.WINDUS,           *
          *       TOGETHER WITH M.DUPUIS, J.A.MONTGOMERY       *
          *         J.COMPUT.CHEM.  14, 1347-1363(1993)        *
          **************** 64 BIT INTEL VERSION ****************

  SINCE 1993, STUDENTS AND POSTDOCS WORKING AT IOWA STATE UNIVERSITY
  AND ALSO IN THEIR VARIOUS JOBS AFTER LEAVING ISU HAVE MADE IMPORTANT
  CONTRIBUTIONS TO THE CODE:
     IVANA ADAMOVIC, CHRISTINE AIKENS, YURI ALEXEEV, POOJA ARORA,
     ANDREY ASADCHEV, ROB BELL, PRADIPTA BANDYOPADHYAY, JONATHAN BENTZ,
     BRETT BODE, GALINA CHABAN, WEI CHEN, CHEOL HO CHOI, PAUL DAY,
     ALBERT DEFUSCO, TIM DUDLEY, DMITRI FEDOROV, GRAHAM FLETCHER,
     MARK FREITAG, KURT GLAESEMANN, DAN KEMP, GRANT MERRILL,
     NORIYUKI MINEZAWA, JONATHAN MULLIN, TAKESHI NAGATA,
     SEAN NEDD, HEATHER NETZLOFF, BOSILJKA NJEGIC, RYAN OLSON, MIKE PAK,
     JIM SHOEMAKER, LYUDMILA SLIPCHENKO, SAROM SOK, JIE SONG,
     TETSUYA TAKETSUGU, SIMON WEBB, SOOHAENG YOO, FEDERICO ZAHARIEV

  ADDITIONAL CODE HAS BEEN PROVIDED BY COLLABORATORS IN OTHER GROUPS:
     IOWA STATE UNIVERSITY:
          JOE IVANIC, LAIMUTIS BYTAUTAS, KLAUS RUEDENBERG
     UNIVERSITY OF TOKYO: KIMIHIKO HIRAO, TAKAHITO NAKAJIMA,
          TAKAO TSUNEDA, MUNEAKI KAMIYA, SUSUMU YANAGISAWA,
          KIYOSHI YAGI, MAHITO CHIBA, SEIKEN TOKURA, NAOAKI KAWAKAMI
     UNIVERSITY OF AARHUS: FRANK JENSEN
     UNIVERSITY OF IOWA: VISVALDAS KAIRYS, HUI LI
     NATIONAL INST. OF STANDARDS AND TECHNOLOGY: WALT STEVENS, DAVID GARMER
     UNIVERSITY OF PISA: BENEDETTA MENNUCCI, JACOPO TOMASI
     UNIVERSITY OF MEMPHIS: HENRY KURTZ, PRAKASHAN KORAMBATH
     UNIVERSITY OF ALBERTA: TOBY ZENG, MARIUSZ KLOBUKOWSKI
     UNIVERSITY OF NEW ENGLAND: MARK SPACKMAN
     MIE UNIVERSITY: HIROAKI UMEDA
     MICHIGAN STATE UNIVERSITY:
          KAROL KOWALSKI, MARTA WLOCH, JEFFREY GOUR, JESSE LUTZ,
          WEI LI, PIOTR PIECUCH
     UNIVERSITY OF SILESIA: MONIKA MUSIAL, STANISLAW KUCHARSKI
     FACULTES UNIVERSITAIRES NOTRE-DAME DE LA PAIX:
          OLIVIER QUINET, BENOIT CHAMPAGNE
     UNIVERSITY OF CALIFORNIA - SANTA BARBARA: BERNARD KIRTMAN
     INSTITUTE FOR MOLECULAR SCIENCE:
          KAZUYA ISHIMURA, MICHIO KATOUDA, AND SHIGERU NAGASE
     UNIVERSITY OF NOTRE DAME: DAN CHIPMAN
     KYUSHU UNIVERSITY:
          HARUYUKI NAKANO,
          FENG LONG GU, JACEK KORCHOWIEC, MARCIN MAKOWSKI, AND YURIKO AOKI,
          HIROTOSHI MORI AND EISAKU MIYOSHI
     PENNSYLVANIA STATE UNIVERSITY:
          TZVETELIN IORDANOV, CHET SWALINA, JONATHAN SKONE,
          SHARON HAMMES-SCHIFFER
     WASEDA UNIVERSITY:
          MASATO KOBAYASHI, TOMOKO AKAMA, TSUGUKI TOUMA,
          TAKESHI YOSHIKAWA, YASUHIRO IKABATA, HIROMI NAKAI
     NANJING UNIVERSITY: SHUHUA LI
     UNIVERSITY OF NEBRASKA:
          PEIFENG SU, DEJUN SI, NANDUN THELLAMUREGE, YALI WANG, HUI LI
     UNIVERSITY OF ZURICH:
          ROBERTO PEVERATI, KIM BALDRIDGE
     N. COPERNICUS UNIVERSITY AND JACKSON STATE UNIVERSITY:
          MARIA BARYSZ

 EXECUTION OF GAMESS BEGUN Tue Sep 13 14:00:22 2016

            ECHO OF THE FIRST FEW INPUT CARDS -
 INPUT CARD>! EXAM 43.                                                                      
 INPUT CARD>!   methane G3(MP2,CCSD(T)) heat of formation                                   
 INPUT CARD>!      6-31G(d) has 23 AOs and 23 MOs,                                          
 INPUT CARD>!      G3Large  has 79 AOs and 74 MOs.                                          
 INPUT CARD>!                                                                               
 INPUT CARD>!                SUMMARY OF G3(MP2) CALCULATIONS                                
 INPUT CARD>! --------------------------------------------------------                      
 INPUT CARD>! MP2/6-31G(D)   = -40.332552 CCSD(T)/6-31G(D)= -40.355850                      
 INPUT CARD>! MP2/G3MP2LARGE = -40.404248 BASIS CONTRIBUT =   -.071696                      
 INPUT CARD>! ZPE(HF/6-31G(D)=    .042659 ZPE SCALE FACTOR=    .892900                      
 INPUT CARD>! HLC            =   -.036680 FREE ENERGY     =    .030480                      
 INPUT CARD>! THERMAL ENERGY =    .050629 THERMAL ENTHALPY=    .051573                      
 INPUT CARD>! --------------------------------------------------------                      
 INPUT CARD>! E(G3(MP2)) @ 0K= -40.421567 E(G3(MP2)) @298K= -40.418715                      
 INPUT CARD>! H(G3(MP2))     = -40.417771 G(G3(MP2))      = -40.438863                      
 INPUT CARD>! --------------------------------------------------------                      
 INPUT CARD>!       HEAT OF FORMATION   (0K):     -16.01 KCAL/MOL                           
 INPUT CARD>!       HEAT OF FORMATION (298K):     -17.83 KCAL/MOL                           
 INPUT CARD>! --------------------------------------------------------                      
 INPUT CARD>! The literature, namely JCP 110,4705(1999), says the                           
 INPUT CARD>! heat of formation by G3(MP2,QCISD(T)) = -17.8 @ 298                           
 INPUT CARD>!                                                                               
 INPUT CARD>! This run substitutes the standard CCSD(T) energy for                          
 INPUT CARD>! QCI, as considered by                                                         
 INPUT CARD>!   L.A.Curtiss, K.Ragavachari, P.C.Redfern, A.G.Baboul,                        
 INPUT CARD>!   J.A.Pople Chem.Phys.Lett. 314, 101-107(1999)                                
 INPUT CARD>!                                                                               
 INPUT CARD>! RUNTYP=G3MP2 performs a sequence of computations,                             
 INPUT CARD>!   First, using the 6-31G(d) Cartesian GTO basis set:                          
 INPUT CARD>!     HF geometry optimization (much like runtyp=optimize)                      
 INPUT CARD>!     HF frequencies and ZPE evaluation (runtyp=hessian)                        
 INPUT CARD>!     MP2 geometry, with no frozen cores (runtyp=optimize)                      
 INPUT CARD>!     CCSD(T) energy calculation (runtyp=energy)                                
 INPUT CARD>!   Then, using the G3Large basis, as spherical harmonics:                      
 INPUT CARD>!     MP2 energy calculation, with frozen cores                                 
 INPUT CARD>! All these intermediate energies are then gathered up                          
 INPUT CARD>! by the G3(MP2,CCSD(T)) recipe to produce the results.                         
 INPUT CARD>!                                                                               
 INPUT CARD>! Note that there is no particular input.  The two basis                        
 INPUT CARD>! sets that are used, and the switch from Cartesian to                          
 INPUT CARD>! spherical harmonics is handled internally, so there is                        
 INPUT CARD>! no $BASIS group.  The bases and atomic thermochemistry                        
 INPUT CARD>! are available for H-Ar, except for the noble gases.                           
 INPUT CARD>! The reference state must be RHF.                                              
 INPUT CARD>! Parallel computation is enabled.                                              
 INPUT CARD>!                                                                               
 INPUT CARD>! You can assist the run by giving a converged HF/6-31G(d)                      
 INPUT CARD>! geometry in $DATA, although this is not necessary.                            
 INPUT CARD>!                                                                               
 INPUT CARD> $contrl scftyp=rhf runtyp=g3mp2 $end                                           
    2000000 WORDS OF MEMORY AVAILABLE

     BASIS OPTIONS
     -------------
     GBASIS=N31          IGAUSS=       6      POLAR=POPN31  
     NDFUNC=       1     NFFUNC=       0     DIFFSP=       F
     NPFUNC=       0      DIFFS=       F     BASNAM=        


     RUN TITLE
     ---------
 Methane...G3(MP2,CCSD(T))                                                       

 THE POINT GROUP OF THE MOLECULE IS TD      
 THE ORDER OF THE PRINCIPAL AXIS IS     0

 ATOM      ATOMIC                      COORDINATES (BOHR)
           CHARGE         X                   Y                   Z
 C           6.0     0.0000000000        0.0000000000        0.0000000000
 H           1.0     1.2047573869       -1.2047573869       -1.2047573869
 H           1.0    -1.2047573869        1.2047573869       -1.2047573869
 H           1.0    -1.2047573869       -1.2047573869        1.2047573869
 H           1.0     1.2047573869        1.2047573869        1.2047573869

          INTERNUCLEAR DISTANCES (ANGS.)
          ------------------------------

                1 C          2 H          3 H          4 H          5 H     

   1 C       0.0000000    1.1042347 *  1.1042347 *  1.1042347 *  1.1042347 *
   2 H       1.1042347 *  0.0000000    1.8032077 *  1.8032077 *  1.8032077 *
   3 H       1.1042347 *  1.8032077 *  0.0000000    1.8032077 *  1.8032077 *
   4 H       1.1042347 *  1.8032077 *  1.8032077 *  0.0000000    1.8032077 *
   5 H       1.1042347 *  1.8032077 *  1.8032077 *  1.8032077 *  0.0000000  

  * ... LESS THAN  3.000


     ATOMIC BASIS SET
     ----------------
 THE CONTRACTED PRIMITIVE FUNCTIONS HAVE BEEN UNNORMALIZED
 THE CONTRACTED BASIS FUNCTIONS ARE NOW NORMALIZED TO UNITY

  SHELL TYPE  PRIMITIVE        EXPONENT          CONTRACTION COEFFICIENT(S)

 C         

      1   S       1          3047.5248800    0.001834737132
      1   S       2           457.3695180    0.014037322813
      1   S       3           103.9486850    0.068842622264
      1   S       4            29.2101553    0.232184443216
      1   S       5             9.2866630    0.467941348435
      1   S       6             3.1639270    0.362311985337

      2   L       7             7.8682723   -0.119332419775    0.068999066591
      2   L       8             1.8812885   -0.160854151696    0.316423960957
      2   L       9             0.5442493    1.143456437840    0.744308290898

      3   L      10             0.1687145    1.000000000000    1.000000000000

      4   D      11             0.8000000    1.000000000000

 H         

     11   S      12            18.7311370    0.033494604338
     11   S      13             2.8253944    0.234726953484
     11   S      14             0.6401217    0.813757326146

     12   S      15             0.1612778    1.000000000000

 TOTAL NUMBER OF BASIS SET SHELLS             =   12
 NUMBER OF CARTESIAN GAUSSIAN BASIS FUNCTIONS =   23
 NUMBER OF ELECTRONS                          =   10
 CHARGE OF MOLECULE                           =    0
 SPIN MULTIPLICITY                            =    1
 NUMBER OF OCCUPIED ORBITALS (ALPHA)          =    5
 NUMBER OF OCCUPIED ORBITALS (BETA )          =    5
 TOTAL NUMBER OF ATOMS                        =    5
 THE NUCLEAR REPULSION ENERGY IS       13.2621945114

     $CONTRL OPTIONS
     ---------------
 SCFTYP=RHF          RUNTYP=G3MP2        EXETYP=RUN     
 MPLEVL=       0     CITYP =NONE         CCTYP =NONE         VBTYP =NONE    
 DFTTYP=NONE         TDDFT =NONE    
 MULT  =       1     ICHARG=       0     NZVAR =       0     COORD =UNIQUE  
 PP    =NONE         RELWFN=NONE         LOCAL =NONE         NUMGRD=       F
 ISPHER=      -1     NOSYM =       0     MAXIT =      30     UNITS =ANGS    
 PLTORB=       F     MOLPLT=       F     AIMPAC=       F     FRIEND=        
 NPRINT=       7     IREST =       0     GEOM  =INPUT   
 NORMF =       0     NORMP =       0     ITOL  =      20     ICUT  =       9
 INTTYP=BEST         GRDTYP=BEST         QMTTOL= 1.0E-06

     $SYSTEM OPTIONS
     ---------------
  REPLICATED MEMORY=     2000000 WORDS (ON EVERY NODE).
 DISTRIBUTED MEMDDI=           5 MILLION WORDS IN AGGREGATE,
 MEMDDI DISTRIBUTED OVER   1 PROCESSORS IS     5000000 WORDS/PROCESSOR.
 TOTAL MEMORY REQUESTED ON EACH PROCESSOR=     7000000 WORDS.
 TIMLIM=           2.00 MINUTES, OR       0.0 DAYS.
 PARALL= F  BALTYP=  DLB     KDIAG=    0  COREFL= F
 MXSEQ2=     300 MXSEQ3=     150

          ----------------
          PROPERTIES INPUT
          ----------------

     MOMENTS            FIELD           POTENTIAL          DENSITY
 IEMOM =       1   IEFLD =       0   IEPOT =       0   IEDEN =       0
 WHERE =COMASS     WHERE =NUCLEI     WHERE =NUCLEI     WHERE =NUCLEI  
 OUTPUT=BOTH       OUTPUT=BOTH       OUTPUT=BOTH       OUTPUT=BOTH    
 IEMINT=       0   IEFINT=       0                     IEDINT=       0
                                                       MORB  =       0
          EXTRAPOLATION IN EFFECT
          DIIS IN EFFECT
 ORBITAL PRINTING OPTION: NPREO=     1    23     2     1

     -------------------------------
     INTEGRAL TRANSFORMATION OPTIONS
     -------------------------------
     NWORD  =            0
     CUTOFF = 1.0E-09     MPTRAN =       0
     DIRTRF =       T     AOINTS =DUP     

          ----------------------
          INTEGRAL INPUT OPTIONS
          ----------------------
 NOPK  =       1 NORDER=       0 SCHWRZ=       T

     --------------------------------
     THE POINT GROUP IS TD , ORDER=24
     --------------------------------

     DIMENSIONS OF THE SYMMETRY SUBSPACES ARE
 A1  =    6     A2  =    0     E   =    1     T1  =    0     T2  =    5

 ..... DONE SETTING UP THE RUN .....
 STEP CPU TIME =     0.01 TOTAL CPU TIME =        0.0 (    0.0 MIN)
 TOTAL WALL CLOCK TIME=        0.0 SECONDS, CPU UTILIZATION IS  50.00%

     ==================================================
     ----------     G3(MP2) CALCULATIONS     ----------
     ==================================================

     --------------------------------------------------
     -----     G3(MP2) HF OPTIMIZATION AND HESSIAN
     --------------------------------------------------

     BASIS OPTIONS
     -------------
     GBASIS=N31          IGAUSS=       6      POLAR=POPN31  
     NDFUNC=       1     NFFUNC=       0     DIFFSP=       F
     NPFUNC=       0      DIFFS=       F     BASNAM=        


          -----------------------------
          STATIONARY POINT LOCATION RUN
          -----------------------------

 OBTAINING INITIAL HESSIAN, HESS=GUESS   
 CARTESIAN COORDINATE OPTIMIZATION USING BADGER'S RULE FORCE CONSTANT GUESS

          PARAMETERS CONTROLLING GEOMETRY SEARCH ARE
          METHOD =QA                  UPHESS =BFGS    
          NNEG   =         0          NFRZ   =         0
          NSTEP  =        50          IFOLOW =         1
          HESS   =GUESS               RESTAR =         F
          IHREP  =         0          HSSEND =         T
          NPRT   =         0          NPUN   =         0
          OPTTOL = 1.000E-04          RMIN   = 1.500E-03
          RMAX   = 1.000E-01          RLIM   = 7.000E-02
          DXMAX  = 3.000E-01          PURIFY =         F
          MOVIE  =         F          TRUPD  =         T
          TRMAX  = 5.000E-01          TRMIN  = 5.000E-02
          ITBMAT =         5          STPT   =         F
          STSTEP = 1.000E-02          PROJCT=          T

 BEGINNING GEOMETRY SEARCH POINT NSERCH=   0 ...

 COORDINATES OF SYMMETRY UNIQUE ATOMS (ANGS)
   ATOM   CHARGE       X              Y              Z
 ------------------------------------------------------------
 C           6.0   0.0000000000   0.0000000000   0.0000000000
 H           1.0   0.6375302000   0.6375302000   0.6375302000
 COORDINATES OF ALL ATOMS ARE (ANGS)
   ATOM   CHARGE       X              Y              Z
 ------------------------------------------------------------
 C           6.0   0.0000000000   0.0000000000   0.0000000000
 H           1.0   0.6375302000  -0.6375302000  -0.6375302000
 H           1.0  -0.6375302000   0.6375302000  -0.6375302000
 H           1.0  -0.6375302000  -0.6375302000   0.6375302000
 H           1.0   0.6375302000   0.6375302000   0.6375302000

          ********************
          1 ELECTRON INTEGRALS
          ********************
 ...... END OF ONE-ELECTRON INTEGRALS ......
 STEP CPU TIME =     0.01 TOTAL CPU TIME =        0.0 (    0.0 MIN)
 TOTAL WALL CLOCK TIME=        0.1 SECONDS, CPU UTILIZATION IS  50.00%

          -------------
          GUESS OPTIONS
          -------------
          GUESS =HUCKEL            NORB  =       0          NORDER=       0
          MIX   =       F          PRTMO =       F          PUNMO =       F
          TOLZ  = 1.0E-08          TOLE  = 1.0E-05
          SYMDEN=       F          PURIFY=       F

 INITIAL GUESS ORBITALS GENERATED BY HUCKEL   ROUTINE.
 HUCKEL GUESS REQUIRES      7663 WORDS.

 SYMMETRIES FOR INITIAL GUESS ORBITALS FOLLOW.   BOTH SET(S).
     5 ORBITALS ARE OCCUPIED (    1 CORE ORBITALS).
     2=A1       3=T2       4=T2       5=T2       6=T2       7=T2       8=T2  
     9=A1      10=A1      11=A1      12=A1      13=E       14=E       15=T2  
 ...... END OF INITIAL ORBITAL SELECTION ......
 STEP CPU TIME =     0.01 TOTAL CPU TIME =        0.0 (    0.0 MIN)
 TOTAL WALL CLOCK TIME=        0.1 SECONDS, CPU UTILIZATION IS  50.00%

                    ----------------------
                    AO INTEGRAL TECHNOLOGY
                    ----------------------
     S,P,L SHELL ROTATED AXIS INTEGRALS, REPROGRAMMED BY
        KAZUYA ISHIMURA (IMS) AND JOSE SIERRA (SYNSTAR).
     S,P,D,L SHELL ROTATED AXIS INTEGRALS PROGRAMMED BY
        KAZUYA ISHIMURA (INSTITUTE FOR MOLECULAR SCIENCE).
     S,P,D,F,G SHELL TO TOTAL QUARTET ANGULAR MOMENTUM SUM 5,
        ERIC PROGRAM BY GRAHAM FLETCHER (ELORET AND NASA ADVANCED
        SUPERCOMPUTING DIVISION, AMES RESEARCH CENTER).
     S,P,D,F,G,L SHELL GENERAL RYS QUADRATURE PROGRAMMED BY
        MICHEL DUPUIS (PACIFIC NORTHWEST NATIONAL LABORATORY).

          --------------------
          2 ELECTRON INTEGRALS
          --------------------

 DIRECT SCF METHOD SKIPS INTEGRAL STORAGE ON DISK.
 DIRECT TRANSFORMATION SKIPS AO INTEGRAL STORAGE ON DISK.
  ...... END OF TWO-ELECTRON INTEGRALS .....
 STEP CPU TIME =     0.01 TOTAL CPU TIME =        0.0 (    0.0 MIN)
 TOTAL WALL CLOCK TIME=        0.1 SECONDS, CPU UTILIZATION IS  55.56%

          --------------------------
                 RHF SCF CALCULATION
          --------------------------

     NUCLEAR ENERGY =        13.2621945114
     MAXIT =   30     NPUNCH=    2
     EXTRAP=T  DAMP=F  SHIFT=F  RSTRCT=F  DIIS=T  DEM=F  SOSCF=F
     DENSITY MATRIX CONV=  2.00E-05
     MEMORY REQUIRED FOR RHF ITERS=     50242 WORDS.

 DIRECT SCF CALCULATION, SCHWRZ=T   FDIFF=T,  DIRTHR=  0.00E+00 NITDIR=10
 SCHWARZ INEQUALITY OVERHEAD:       276 INTEGRALS, T=        0.00

                                                                                   NONZERO     BLOCKS
 ITER EX DEM     TOTAL ENERGY        E CHANGE  DENSITY CHANGE    DIIS ERROR      INTEGRALS    SKIPPED
          * * *   INITIATING DIIS PROCEDURE   * * *
   1  0  0      -40.1078320463   -40.1078320463   0.123961837   0.454738164           6813          0
   2  1  0      -40.1895949372    -0.0817628909   0.042851517   0.054098064           6813          0
   3  2  0      -40.1934072456    -0.0038123084   0.014981548   0.022413308           6813          0
   4  3  0      -40.1940032556    -0.0005960099   0.004409342   0.004419446           6813          0
   5  4  0      -40.1940346656    -0.0000314100   0.000326085   0.000219634           6813          0
   6  5  0      -40.1940348669    -0.0000002013   0.000044073   0.000021886           6813          0
   7  6  0      -40.1940348688    -0.0000000019   0.000004518   0.000002160           6813          0
   8  7  0      -40.1940348688     0.0000000000   0.000000073   0.000000136           6813          0

          -----------------
          DENSITY CONVERGED
          -----------------
     TIME TO FORM FOCK OPERATORS=       0.0 SECONDS (       0.0 SEC/ITER)
     FOCK TIME ON FIRST ITERATION=       0.0, LAST ITERATION=       0.0
     TIME TO SOLVE SCF EQUATIONS=       0.0 SECONDS (       0.0 SEC/ITER)

 FINAL RHF ENERGY IS      -40.1940348688 AFTER   8 ITERATIONS

          ------------
          EIGENVECTORS
          ------------

                      1          2          3          4          5
                  -11.2149    -0.9362    -0.5409    -0.5409    -0.5409
                     A1         A1         T2         T2         T2  
    1  C  1  S    0.995676  -0.193353   0.000000   0.000000   0.000000
    2  C  1  S    0.028090   0.357213   0.000000   0.000000   0.000000
    3  C  1  X    0.000000   0.000000   0.432215   0.000000   0.000000
    4  C  1  Y    0.000000   0.000000   0.000000   0.432215   0.000000
    5  C  1  Z    0.000000   0.000000   0.000000   0.000000   0.432215
    6  C  1  S   -0.012922   0.371633   0.000000   0.000000   0.000000
    7  C  1  X    0.000000   0.000000   0.231575   0.000000   0.000000
    8  C  1  Y    0.000000   0.000000   0.000000   0.231575   0.000000
    9  C  1  Z    0.000000   0.000000   0.000000   0.000000   0.231575
   10  C  1 XX   -0.002000   0.010057   0.000000   0.000000   0.000000
   11  C  1 YY   -0.002000   0.010057   0.000000   0.000000   0.000000
   12  C  1 ZZ   -0.002000   0.010057   0.000000   0.000000   0.000000
   13  C  1 XY    0.000000   0.000000   0.000000   0.000000   0.036004
   14  C  1 XZ    0.000000   0.000000   0.000000   0.036004   0.000000
   15  C  1 YZ    0.000000   0.000000   0.036004   0.000000   0.000000
   16  H  2  S    0.000041   0.132728   0.167720  -0.167720  -0.167720
   17  H  2  S    0.002383   0.038512   0.141359  -0.141359  -0.141359
   18  H  3  S    0.000041   0.132728  -0.167720   0.167720  -0.167720
   19  H  3  S    0.002383   0.038512  -0.141359   0.141359  -0.141359
   20  H  4  S    0.000041   0.132728  -0.167720  -0.167720   0.167720
   21  H  4  S    0.002383   0.038512  -0.141359  -0.141359   0.141359
   22  H  5  S    0.000041   0.132728   0.167720   0.167720   0.167720
   23  H  5  S    0.002383   0.038512   0.141359   0.141359   0.141359

                      6          7          8          9         10
                    0.2528     0.3221     0.3221     0.3221     0.7356
                     A1         T2         T2         T2         T2  
    1  C  1  S   -0.158121   0.000000   0.000000   0.000000   0.000000
    2  C  1  S    0.112959   0.000000   0.000000   0.000000   0.000000
    3  C  1  X    0.000000   0.000000   0.302703   0.000000  -0.744464
    4  C  1  Y    0.000000   0.302703   0.000000   0.000000   0.000000
    5  C  1  Z    0.000000   0.000000   0.000000   0.302703   0.000000
    6  C  1  S    2.711738   0.000000   0.000000   0.000000   0.000000
    7  C  1  X    0.000000   0.000000   1.467147   0.000000   1.345351
    8  C  1  Y    0.000000   1.467147   0.000000   0.000000   0.000000
    9  C  1  Z    0.000000   0.000000   0.000000   1.467147   0.000000
   10  C  1 XX   -0.012206   0.000000   0.000000   0.000000   0.000000
   11  C  1 YY   -0.012206   0.000000   0.000000   0.000000   0.000000
   12  C  1 ZZ   -0.012206   0.000000   0.000000   0.000000   0.000000
   13  C  1 XY    0.000000   0.000000   0.000000  -0.015024   0.000000
   14  C  1 XZ    0.000000  -0.015024   0.000000   0.000000   0.000000
   15  C  1 YZ    0.000000   0.000000  -0.015024   0.000000  -0.106594
   16  H  2  S    0.000731   0.046351  -0.046351   0.046351  -0.311029
   17  H  2  S   -1.020757   1.126533  -1.126533   1.126533  -0.044793
   18  H  3  S    0.000731  -0.046351   0.046351   0.046351   0.311029
   19  H  3  S   -1.020757  -1.126533   1.126533   1.126533   0.044793
   20  H  4  S    0.000731   0.046351   0.046351  -0.046351   0.311029
   21  H  4  S   -1.020757   1.126533   1.126533  -1.126533   0.044793
   22  H  5  S    0.000731  -0.046351  -0.046351  -0.046351  -0.311029
   23  H  5  S   -1.020757  -1.126533  -1.126533  -1.126533  -0.044793

                     11         12         13         14         15
                    0.7356     0.7356     1.1662     1.1662     1.1662
                     T2         T2         T2         T2         T2  
    1  C  1  S    0.000000   0.000000   0.000000   0.000000   0.000000
    2  C  1  S    0.000000   0.000000   0.000000   0.000000   0.000000
    3  C  1  X    0.000000   0.000000   0.000000  -0.901547   0.000000
    4  C  1  Y   -0.744464   0.000000  -0.901547   0.000000   0.000000
    5  C  1  Z    0.000000  -0.744464   0.000000   0.000000  -0.901547
    6  C  1  S    0.000000   0.000000   0.000000   0.000000   0.000000
    7  C  1  X    0.000000   0.000000   0.000000   1.185172   0.000000
    8  C  1  Y    1.345351   0.000000   1.185172   0.000000   0.000000
    9  C  1  Z    0.000000   1.345351   0.000000   0.000000   1.185172
   10  C  1 XX    0.000000   0.000000   0.000000   0.000000   0.000000
   11  C  1 YY    0.000000   0.000000   0.000000   0.000000   0.000000
   12  C  1 ZZ    0.000000   0.000000   0.000000   0.000000   0.000000
   13  C  1 XY    0.000000  -0.106594   0.000000   0.000000   0.214119
   14  C  1 XZ   -0.106594   0.000000   0.214119   0.000000   0.000000
   15  C  1 YZ    0.000000   0.000000   0.000000   0.214119   0.000000
   16  H  2  S    0.311029   0.311029  -0.495716   0.495716  -0.495716
   17  H  2  S    0.044793   0.044793   0.907926  -0.907926   0.907926
   18  H  3  S   -0.311029   0.311029   0.495716  -0.495716  -0.495716
   19  H  3  S   -0.044793   0.044793  -0.907926   0.907926   0.907926
   20  H  4  S    0.311029  -0.311029  -0.495716  -0.495716   0.495716
   21  H  4  S    0.044793  -0.044793   0.907926   0.907926  -0.907926
   22  H  5  S   -0.311029  -0.311029   0.495716   0.495716   0.495716
   23  H  5  S   -0.044793  -0.044793  -0.907926  -0.907926  -0.907926

                     16         17         18         19         20
                    1.2188     1.3076     1.9444     1.9444     2.5620
                     A1         A1         E          E          T2  
    1  C  1  S    0.086482  -0.114810   0.000000   0.000000   0.000000
    2  C  1  S   -1.029432  -1.903605   0.000000   0.000000   0.000000
    3  C  1  X    0.000000   0.000000   0.000000   0.000000   0.149984
    4  C  1  Y    0.000000   0.000000   0.000000   0.000000   0.000000
    5  C  1  Z    0.000000   0.000000   0.000000   0.000000   0.000000
    6  C  1  S    1.683191   5.145764   0.000000   0.000000   0.000000
    7  C  1  X    0.000000   0.000000   0.000000   0.000000   0.410202
    8  C  1  Y    0.000000   0.000000   0.000000   0.000000   0.000000
    9  C  1  Z    0.000000   0.000000   0.000000   0.000000   0.000000
   10  C  1 XX   -0.049993  -0.135392  -0.500000   0.866025   0.000000
   11  C  1 YY   -0.049993  -0.135392  -0.500000  -0.866025   0.000000
   12  C  1 ZZ   -0.049993  -0.135392   1.000000   0.000000   0.000000
   13  C  1 XY    0.000000   0.000000   0.000000   0.000000   0.000000
   14  C  1 XZ    0.000000   0.000000   0.000000   0.000000   0.000000
   15  C  1 YZ    0.000000   0.000000   0.000000   0.000000   1.120406
   16  H  2  S    0.606395  -0.366993   0.000000   0.000000  -0.473698
   17  H  2  S   -0.626695  -0.920313   0.000000   0.000000   0.059083
   18  H  3  S    0.606395  -0.366993   0.000000   0.000000   0.473698
   19  H  3  S   -0.626695  -0.920313   0.000000   0.000000  -0.059083
   20  H  4  S    0.606395  -0.366993   0.000000   0.000000   0.473698
   21  H  4  S   -0.626695  -0.920313   0.000000   0.000000  -0.059083
   22  H  5  S    0.606395  -0.366993   0.000000   0.000000  -0.473698
   23  H  5  S   -0.626695  -0.920313   0.000000   0.000000   0.059083

                     21         22         23
                    2.5620     2.5620     4.5954
                     T2         T2         A1  
    1  C  1  S    0.000000   0.000000  -0.484096
    2  C  1  S    0.000000   0.000000   2.974201
    3  C  1  X    0.000000   0.000000   0.000000
    4  C  1  Y    0.149984   0.000000   0.000000
    5  C  1  Z    0.000000   0.149984   0.000000
    6  C  1  S    0.000000   0.000000   2.340043
    7  C  1  X    0.000000   0.000000   0.000000
    8  C  1  Y    0.410202   0.000000   0.000000
    9  C  1  Z    0.000000   0.410202   0.000000
   10  C  1 XX    0.000000   0.000000  -1.874411
   11  C  1 YY    0.000000   0.000000  -1.874411
   12  C  1 ZZ    0.000000   0.000000  -1.874411
   13  C  1 XY    0.000000   1.120406   0.000000
   14  C  1 XZ    1.120406   0.000000   0.000000
   15  C  1 YZ    0.000000   0.000000   0.000000
   16  H  2  S    0.473698   0.473698   0.122627
   17  H  2  S   -0.059083  -0.059083  -0.470539
   18  H  3  S   -0.473698   0.473698   0.122627
   19  H  3  S    0.059083  -0.059083  -0.470539
   20  H  4  S    0.473698  -0.473698   0.122627
   21  H  4  S   -0.059083   0.059083  -0.470539
   22  H  5  S   -0.473698  -0.473698   0.122627
   23  H  5  S    0.059083   0.059083  -0.470539
 ...... END OF RHF CALCULATION ......
 STEP CPU TIME =     0.02 TOTAL CPU TIME =        0.1 (    0.0 MIN)
 TOTAL WALL CLOCK TIME=        0.1 SECONDS, CPU UTILIZATION IS  58.33%

     ----------------------------------------------------------------
     PROPERTY VALUES FOR THE RHF   SELF-CONSISTENT FIELD WAVEFUNCTION
     ----------------------------------------------------------------

          -----------------
          ENERGY COMPONENTS
          -----------------

         WAVEFUNCTION NORMALIZATION =       1.0000000000

                ONE ELECTRON ENERGY =     -79.3647268098
                TWO ELECTRON ENERGY =      25.9084974296
           NUCLEAR REPULSION ENERGY =      13.2621945114
                                      ------------------
                       TOTAL ENERGY =     -40.1940348688

 ELECTRON-ELECTRON POTENTIAL ENERGY =      25.9084974296
  NUCLEUS-ELECTRON POTENTIAL ENERGY =    -119.4331833884
   NUCLEUS-NUCLEUS POTENTIAL ENERGY =      13.2621945114
                                      ------------------
             TOTAL POTENTIAL ENERGY =     -80.2624914474
               TOTAL KINETIC ENERGY =      40.0684565786
                 VIRIAL RATIO (V/T) =       2.0031340935

          ---------------------------------------
          MULLIKEN AND LOWDIN POPULATION ANALYSES
          ---------------------------------------

     ATOMIC MULLIKEN POPULATION IN EACH MOLECULAR ORBITAL

                      1          2          3          4          5

                  2.000000   2.000000   2.000000   2.000000   2.000000

    1             1.998132   1.359604   1.098909   1.098909   1.098909
    2             0.000467   0.160099   0.225273   0.225273   0.225273
    3             0.000467   0.160099   0.225273   0.225273   0.225273
    4             0.000467   0.160099   0.225273   0.225273   0.225273
    5             0.000467   0.160099   0.225273   0.225273   0.225273

               ----- POPULATIONS IN EACH AO -----
                             MULLIKEN      LOWDIN
              1  C  1  S      1.99644     1.98208
              2  C  1  S      0.62130     0.35186
              3  C  1  X      0.68322     0.61852
              4  C  1  Y      0.68322     0.61852
              5  C  1  Z      0.68322     0.61852
              6  C  1  S      0.70093     0.36206
              7  C  1  X      0.40192     0.52329
              8  C  1  Y      0.40192     0.52329
              9  C  1  Z      0.40192     0.52329
             10  C  1 XX      0.01302     0.14760
             11  C  1 YY      0.01302     0.14760
             12  C  1 ZZ      0.01302     0.14760
             13  C  1 XY      0.01377     0.01995
             14  C  1 XZ      0.01377     0.01995
             15  C  1 YZ      0.01377     0.01995
             16  H  2  S      0.51585     0.47792
             17  H  2  S      0.32053     0.36606
             18  H  3  S      0.51585     0.47792
             19  H  3  S      0.32053     0.36606
             20  H  4  S      0.51585     0.47792
             21  H  4  S      0.32053     0.36606
             22  H  5  S      0.51585     0.47792
             23  H  5  S      0.32053     0.36606

          ----- MULLIKEN ATOMIC OVERLAP POPULATIONS -----
          (OFF-DIAGONAL ELEMENTS NEED TO BE MULTIPLIED BY 2)

             1           2           3           4           5

    1    5.1131602
    2    0.3853255   0.5276349
    3    0.3853255  -0.0255253   0.5276349
    4    0.3853255  -0.0255253  -0.0255253   0.5276349
    5    0.3853255  -0.0255253  -0.0255253  -0.0255253   0.5276349

          TOTAL MULLIKEN AND LOWDIN ATOMIC POPULATIONS
       ATOM         MULL.POP.    CHARGE          LOW.POP.     CHARGE
    1 C             6.654462   -0.654462         6.624074   -0.624074
    2 H             0.836384    0.163616         0.843981    0.156019
    3 H             0.836384    0.163616         0.843981    0.156019
    4 H             0.836384    0.163616         0.843981    0.156019
    5 H             0.836384    0.163616         0.843981    0.156019

          -------------------------------
          BOND ORDER AND VALENCE ANALYSIS     BOND ORDER THRESHOLD=0.050
          -------------------------------

                   BOND                       BOND                       BOND
  ATOM PAIR DIST  ORDER      ATOM PAIR DIST  ORDER      ATOM PAIR DIST  ORDER
    1   2  1.104  0.961        1   3  1.104  0.961        1   4  1.104  0.961
    1   5  1.104  0.961

                       TOTAL       BONDED        FREE
      ATOM            VALENCE     VALENCE     VALENCE
    1 C                 3.843       3.843       0.000
    2 H                 0.935       0.935       0.000
    3 H                 0.935       0.935       0.000
    4 H                 0.935       0.935       0.000
    5 H                 0.935       0.935       0.000

          ---------------------
          ELECTROSTATIC MOMENTS
          ---------------------

 POINT   1           X           Y           Z (BOHR)    CHARGE
                 0.000000    0.000000    0.000000        0.00 (A.U.)
         DX          DY          DZ         /D/  (DEBYE)
     0.000000    0.000000    0.000000    0.000000
 ...... END OF PROPERTY EVALUATION ......
 STEP CPU TIME =     0.00 TOTAL CPU TIME =        0.1 (    0.0 MIN)
 TOTAL WALL CLOCK TIME=        0.1 SECONDS, CPU UTILIZATION IS  53.85%

 BEGINNING ONE ELECTRON GRADIENT...
 ..... END OF 1-ELECTRON GRADIENT ......
 STEP CPU TIME =     0.00 TOTAL CPU TIME =        0.1 (    0.0 MIN)
 TOTAL WALL CLOCK TIME=        0.1 SECONDS, CPU UTILIZATION IS  46.67%

          ----------------------
          GRADIENT OF THE ENERGY
          ----------------------

 THE MINIMUM MEMORY REQUIRED FOR THIS RUN IS      74081 WORDS.
 USING    1049601 WORDS FOR 2E- DERIVATIVE INTEGRAL CONTRIBUTIONS.
 THE COARSE/FINE SCHWARZ SCREENINGS SKIPPED            0/           0 BLOCKS.
 THE NUMBER OF GRADIENT INTEGRAL BLOCKS COMPUTED WAS       366
 ...... END OF 2-ELECTRON GRADIENT ......
 STEP CPU TIME =     0.00 TOTAL CPU TIME =        0.1 (    0.0 MIN)
 TOTAL WALL CLOCK TIME=        0.1 SECONDS, CPU UTILIZATION IS  46.67%

          NSERCH=  0     ENERGY=     -40.1940349

                                 -----------------------
                                 GRADIENT (HARTREE/BOHR)
                                 -----------------------
        ATOM     ZNUC       DE/DX         DE/DY         DE/DZ
 --------------------------------------------------------------
    1  C            6.0     0.0000000     0.0000000     0.0000000
    2  H            1.0     0.0082896    -0.0082896    -0.0082896
    3  H            1.0    -0.0082896     0.0082896    -0.0082896
    4  H            1.0    -0.0082896    -0.0082896     0.0082896
    5  H            1.0     0.0082896     0.0082896     0.0082896

          MAXIMUM GRADIENT = 0.0082896    RMS GRADIENT = 0.0074145

 NSERCH:   0  E=      -40.1940348688  GRAD. MAX=  0.0082896  R.M.S.=  0.0074145

          FORCE CONSTANT MATRIX NOT UPDATED --- TAKING FIRST STEP
          MIN SEARCH, CORRECT HESSIAN, TRYING PURE NR STEP
               NR STEP HAS LENGTH         =   0.060353
          RADIUS OF STEP TAKEN=   0.06035  CURRENT TRUST RADIUS=   0.30000

 BEGINNING GEOMETRY SEARCH POINT NSERCH=   1 ...

 COORDINATES OF SYMMETRY UNIQUE ATOMS (ANGS)
   ATOM   CHARGE       X              Y              Z
 ------------------------------------------------------------
 C           6.0   0.0000000000   0.0000000000   0.0000000000
 H           1.0   0.6283105896   0.6283105896   0.6283105896
 COORDINATES OF ALL ATOMS ARE (ANGS)
   ATOM   CHARGE       X              Y              Z
 ------------------------------------------------------------
 C           6.0   0.0000000000   0.0000000000   0.0000000000
 H           1.0   0.6283105896  -0.6283105896  -0.6283105896
 H           1.0  -0.6283105896   0.6283105896  -0.6283105896
 H           1.0  -0.6283105896  -0.6283105896   0.6283105896
 H           1.0   0.6283105896   0.6283105896   0.6283105896

          INTERNUCLEAR DISTANCES (ANGS.)
          ------------------------------

                1 C          2 H          3 H          4 H          5 H     

   1 C       0.0000000    1.0882659 *  1.0882659 *  1.0882659 *  1.0882659 *
   2 H       1.0882659 *  0.0000000    1.7771307 *  1.7771307 *  1.7771307 *
   3 H       1.0882659 *  1.7771307 *  0.0000000    1.7771307 *  1.7771307 *
   4 H       1.0882659 *  1.7771307 *  1.7771307 *  0.0000000    1.7771307 *
   5 H       1.0882659 *  1.7771307 *  1.7771307 *  1.7771307 *  0.0000000  

  * ... LESS THAN  3.000

 ...... END OF ONE-ELECTRON INTEGRALS ......
 STEP CPU TIME =     0.01 TOTAL CPU TIME =        0.1 (    0.0 MIN)
 TOTAL WALL CLOCK TIME=        0.2 SECONDS, CPU UTILIZATION IS  50.00%
  ...... END OF TWO-ELECTRON INTEGRALS .....
 STEP CPU TIME =     0.00 TOTAL CPU TIME =        0.1 (    0.0 MIN)
 TOTAL WALL CLOCK TIME=        0.2 SECONDS, CPU UTILIZATION IS  47.06%

          --------------------------
                 RHF SCF CALCULATION
          --------------------------
     DENSITY MATRIX CONV=  1.00E-04

 DIRECT SCF CALCULATION, SCHWRZ=T   FDIFF=T,  DIRTHR=  0.00E+00 NITDIR=10

                                                                                   NONZERO     BLOCKS
 ITER EX DEM     TOTAL ENERGY        E CHANGE  DENSITY CHANGE    DIIS ERROR      INTEGRALS    SKIPPED
          * * *   INITIATING DIIS PROCEDURE   * * *
   1  0  0      -40.1949445263   -40.1949445263   0.007698491   0.009389947           6813          0
   2  1  0      -40.1950937407    -0.0001492145   0.002271624   0.002865585           6813          0
   3  2  0      -40.1951128487    -0.0000191080   0.000442905   0.000621750           6813          0
   4  3  0      -40.1951132734    -0.0000004248   0.000045542   0.000037004           6813          0
   5  4  0      -40.1951132786    -0.0000000052   0.000007745   0.000004280           6813          0

          -----------------
          DENSITY CONVERGED
          -----------------
     TIME TO FORM FOCK OPERATORS=       0.0 SECONDS (       0.0 SEC/ITER)
     FOCK TIME ON FIRST ITERATION=       0.0, LAST ITERATION=       0.0
     TIME TO SOLVE SCF EQUATIONS=       0.0 SECONDS (       0.0 SEC/ITER)

 FINAL RHF ENERGY IS      -40.1951132786 AFTER   5 ITERATIONS
 ...... END OF RHF CALCULATION ......
 STEP CPU TIME =     0.01 TOTAL CPU TIME =        0.1 (    0.0 MIN)
 TOTAL WALL CLOCK TIME=        0.2 SECONDS, CPU UTILIZATION IS  47.37%
 ..... END OF 1-ELECTRON GRADIENT ......
 STEP CPU TIME =     0.01 TOTAL CPU TIME =        0.1 (    0.0 MIN)
 TOTAL WALL CLOCK TIME=        0.2 SECONDS, CPU UTILIZATION IS  50.00%
 ...... END OF 2-ELECTRON GRADIENT ......
 STEP CPU TIME =     0.00 TOTAL CPU TIME =        0.1 (    0.0 MIN)
 TOTAL WALL CLOCK TIME=        0.2 SECONDS, CPU UTILIZATION IS  50.00%

          NSERCH=  1     ENERGY=     -40.1951133

                                 -----------------------
                                 GRADIENT (HARTREE/BOHR)
                                 -----------------------
        ATOM     ZNUC       DE/DX         DE/DY         DE/DZ
 --------------------------------------------------------------
    1  C            6.0     0.0000000     0.0000000     0.0000000
    2  H            1.0     0.0019362    -0.0019362    -0.0019362
    3  H            1.0    -0.0019362     0.0019362    -0.0019362
    4  H            1.0    -0.0019362    -0.0019362     0.0019362
    5  H            1.0     0.0019362     0.0019362     0.0019362

          MAXIMUM GRADIENT = 0.0019362    RMS GRADIENT = 0.0017318

 NSERCH:   1  E=      -40.1951132786  GRAD. MAX=  0.0019362  R.M.S.=  0.0017318

          HESSIAN UPDATED USING THE BFGS FORMULA
             ACTUAL ENERGY CHANGE WAS  -0.0010784098
          PREDICTED ENERGY CHANGE WAS  -0.0008665575 RATIO=  1.244
          MIN SEARCH, CORRECT HESSIAN, TRYING PURE NR STEP
               NR STEP HAS LENGTH         =   0.018393
          RADIUS OF STEP TAKEN=   0.01839  CURRENT TRUST RADIUS=   0.08535

 BEGINNING GEOMETRY SEARCH POINT NSERCH=   2 ...

 COORDINATES OF SYMMETRY UNIQUE ATOMS (ANGS)
   ATOM   CHARGE       X              Y              Z
 ------------------------------------------------------------
 C           6.0   0.0000000000   0.0000000000   0.0000000000
 H           1.0   0.6255008957   0.6255008957   0.6255008957
 COORDINATES OF ALL ATOMS ARE (ANGS)
   ATOM   CHARGE       X              Y              Z
 ------------------------------------------------------------
 C           6.0   0.0000000000   0.0000000000   0.0000000000
 H           1.0   0.6255008957  -0.6255008957  -0.6255008957
 H           1.0  -0.6255008957   0.6255008957  -0.6255008957
 H           1.0  -0.6255008957  -0.6255008957   0.6255008957
 H           1.0   0.6255008957   0.6255008957   0.6255008957

          INTERNUCLEAR DISTANCES (ANGS.)
          ------------------------------

                1 C          2 H          3 H          4 H          5 H     

   1 C       0.0000000    1.0833993 *  1.0833993 *  1.0833993 *  1.0833993 *
   2 H       1.0833993 *  0.0000000    1.7691837 *  1.7691837 *  1.7691837 *
   3 H       1.0833993 *  1.7691837 *  0.0000000    1.7691837 *  1.7691837 *
   4 H       1.0833993 *  1.7691837 *  1.7691837 *  0.0000000    1.7691837 *
   5 H       1.0833993 *  1.7691837 *  1.7691837 *  1.7691837 *  0.0000000  

  * ... LESS THAN  3.000

 ...... END OF ONE-ELECTRON INTEGRALS ......
 STEP CPU TIME =     0.00 TOTAL CPU TIME =        0.1 (    0.0 MIN)
 TOTAL WALL CLOCK TIME=        0.2 SECONDS, CPU UTILIZATION IS  50.00%
  ...... END OF TWO-ELECTRON INTEGRALS .....
 STEP CPU TIME =     0.00 TOTAL CPU TIME =        0.1 (    0.0 MIN)
 TOTAL WALL CLOCK TIME=        0.2 SECONDS, CPU UTILIZATION IS  47.62%

          --------------------------
                 RHF SCF CALCULATION
          --------------------------
     DENSITY MATRIX CONV=  2.00E-05

 DIRECT SCF CALCULATION, SCHWRZ=T   FDIFF=T,  DIRTHR=  0.00E+00 NITDIR=10

                                                                                   NONZERO     BLOCKS
 ITER EX DEM     TOTAL ENERGY        E CHANGE  DENSITY CHANGE    DIIS ERROR      INTEGRALS    SKIPPED
          * * *   INITIATING DIIS PROCEDURE   * * *
   1  0  0      -40.1951556980   -40.1951556980   0.002384827   0.002897582           6813          0
   2  1  0      -40.1951698922    -0.0000141943   0.000696040   0.000879764           6813          0
   3  2  0      -40.1951716931    -0.0000018009   0.000139305   0.000191938           6813          0
   4  3  0      -40.1951717326    -0.0000000395   0.000014045   0.000011375           6813          0
   5  4  0      -40.1951717331    -0.0000000005   0.000002361   0.000001329           6813          0

          -----------------
          DENSITY CONVERGED
          -----------------
     TIME TO FORM FOCK OPERATORS=       0.0 SECONDS (       0.0 SEC/ITER)
     FOCK TIME ON FIRST ITERATION=       0.0, LAST ITERATION=       0.0
     TIME TO SOLVE SCF EQUATIONS=       0.0 SECONDS (       0.0 SEC/ITER)

 FINAL RHF ENERGY IS      -40.1951717331 AFTER   5 ITERATIONS
 ...... END OF RHF CALCULATION ......
 STEP CPU TIME =     0.02 TOTAL CPU TIME =        0.1 (    0.0 MIN)
 TOTAL WALL CLOCK TIME=        0.2 SECONDS, CPU UTILIZATION IS  52.17%
 ..... END OF 1-ELECTRON GRADIENT ......
 STEP CPU TIME =     0.00 TOTAL CPU TIME =        0.1 (    0.0 MIN)
 TOTAL WALL CLOCK TIME=        0.2 SECONDS, CPU UTILIZATION IS  50.00%
 ...... END OF 2-ELECTRON GRADIENT ......
 STEP CPU TIME =     0.00 TOTAL CPU TIME =        0.1 (    0.0 MIN)
 TOTAL WALL CLOCK TIME=        0.2 SECONDS, CPU UTILIZATION IS  50.00%

          NSERCH=  2     ENERGY=     -40.1951717

                                 -----------------------
                                 GRADIENT (HARTREE/BOHR)
                                 -----------------------
        ATOM     ZNUC       DE/DX         DE/DY         DE/DZ
 --------------------------------------------------------------
    1  C            6.0     0.0000000     0.0000000     0.0000000
    2  H            1.0    -0.0001101     0.0001101     0.0001101
    3  H            1.0     0.0001101    -0.0001101     0.0001101
    4  H            1.0     0.0001101     0.0001101    -0.0001101
    5  H            1.0    -0.0001101    -0.0001101    -0.0001101

          MAXIMUM GRADIENT = 0.0001101    RMS GRADIENT = 0.0000985

 NSERCH:   2  E=      -40.1951717331  GRAD. MAX=  0.0001101  R.M.S.=  0.0000985

          HESSIAN UPDATED USING THE BFGS FORMULA
             ACTUAL ENERGY CHANGE WAS  -0.0000584545
          PREDICTED ENERGY CHANGE WAS  -0.0000616826 RATIO=  0.948
          MIN SEARCH, CORRECT HESSIAN, TRYING PURE NR STEP
               NR STEP HAS LENGTH         =   0.000990
          RADIUS OF STEP TAKEN=   0.00099  CURRENT TRUST RADIUS=   0.05000

 BEGINNING GEOMETRY SEARCH POINT NSERCH=   3 ...

 COORDINATES OF SYMMETRY UNIQUE ATOMS (ANGS)
   ATOM   CHARGE       X              Y              Z
 ------------------------------------------------------------
 C           6.0   0.0000000000   0.0000000000   0.0000000000
 H           1.0   0.6256521039   0.6256521039   0.6256521039
 COORDINATES OF ALL ATOMS ARE (ANGS)
   ATOM   CHARGE       X              Y              Z
 ------------------------------------------------------------
 C           6.0   0.0000000000   0.0000000000   0.0000000000
 H           1.0   0.6256521039  -0.6256521039  -0.6256521039
 H           1.0  -0.6256521039   0.6256521039  -0.6256521039
 H           1.0  -0.6256521039  -0.6256521039   0.6256521039
 H           1.0   0.6256521039   0.6256521039   0.6256521039

          INTERNUCLEAR DISTANCES (ANGS.)
          ------------------------------

                1 C          2 H          3 H          4 H          5 H     

   1 C       0.0000000    1.0836612 *  1.0836612 *  1.0836612 *  1.0836612 *
   2 H       1.0836612 *  0.0000000    1.7696114 *  1.7696114 *  1.7696114 *
   3 H       1.0836612 *  1.7696114 *  0.0000000    1.7696114 *  1.7696114 *
   4 H       1.0836612 *  1.7696114 *  1.7696114 *  0.0000000    1.7696114 *
   5 H       1.0836612 *  1.7696114 *  1.7696114 *  1.7696114 *  0.0000000  

  * ... LESS THAN  3.000

 ...... END OF ONE-ELECTRON INTEGRALS ......
 STEP CPU TIME =     0.00 TOTAL CPU TIME =        0.1 (    0.0 MIN)
 TOTAL WALL CLOCK TIME=        0.2 SECONDS, CPU UTILIZATION IS  50.00%
  ...... END OF TWO-ELECTRON INTEGRALS .....
 STEP CPU TIME =     0.00 TOTAL CPU TIME =        0.1 (    0.0 MIN)
 TOTAL WALL CLOCK TIME=        0.3 SECONDS, CPU UTILIZATION IS  46.15%

          --------------------------
                 RHF SCF CALCULATION
          --------------------------
     DENSITY MATRIX CONV=  2.00E-05

 DIRECT SCF CALCULATION, SCHWRZ=T   FDIFF=T,  DIRTHR=  0.00E+00 NITDIR=10

                                                                                   NONZERO     BLOCKS
 ITER EX DEM     TOTAL ENERGY        E CHANGE  DENSITY CHANGE    DIIS ERROR      INTEGRALS    SKIPPED
          * * *   INITIATING DIIS PROCEDURE   * * *
   1  0  0      -40.1951718729   -40.1951718729   0.000128811   0.000156415           6813          0
   2  1  0      -40.1951719142    -0.0000000413   0.000037517   0.000047391           6813          0
   3  2  0      -40.1951719195    -0.0000000052   0.000007579   0.000010356           6813          0
   4  3  0      -40.1951719196    -0.0000000001   0.000000750   0.000000607           6813          0

          -----------------
          DENSITY CONVERGED
          -----------------
     TIME TO FORM FOCK OPERATORS=       0.0 SECONDS (       0.0 SEC/ITER)
     FOCK TIME ON FIRST ITERATION=       0.0, LAST ITERATION=       0.0
     TIME TO SOLVE SCF EQUATIONS=       0.0 SECONDS (       0.0 SEC/ITER)

 FINAL RHF ENERGY IS      -40.1951719196 AFTER   4 ITERATIONS
 ...... END OF RHF CALCULATION ......
 STEP CPU TIME =     0.01 TOTAL CPU TIME =        0.1 (    0.0 MIN)
 TOTAL WALL CLOCK TIME=        0.3 SECONDS, CPU UTILIZATION IS  48.15%
 ..... END OF 1-ELECTRON GRADIENT ......
 STEP CPU TIME =     0.00 TOTAL CPU TIME =        0.1 (    0.0 MIN)
 TOTAL WALL CLOCK TIME=        0.3 SECONDS, CPU UTILIZATION IS  46.43%
 ...... END OF 2-ELECTRON GRADIENT ......
 STEP CPU TIME =     0.01 TOTAL CPU TIME =        0.1 (    0.0 MIN)
 TOTAL WALL CLOCK TIME=        0.3 SECONDS, CPU UTILIZATION IS  48.28%

          NSERCH=  3     ENERGY=     -40.1951719

                                 -----------------------
                                 GRADIENT (HARTREE/BOHR)
                                 -----------------------
        ATOM     ZNUC       DE/DX         DE/DY         DE/DZ
 --------------------------------------------------------------
    1  C            6.0     0.0000000     0.0000000     0.0000000
    2  H            1.0     0.0000013    -0.0000013    -0.0000013
    3  H            1.0    -0.0000013     0.0000013    -0.0000013
    4  H            1.0    -0.0000013    -0.0000013     0.0000013
    5  H            1.0     0.0000013     0.0000013     0.0000013

          MAXIMUM GRADIENT = 0.0000013    RMS GRADIENT = 0.0000012

 NSERCH:   3  E=      -40.1951719196  GRAD. MAX=  0.0000013  R.M.S.=  0.0000012


      ***** EQUILIBRIUM GEOMETRY LOCATED *****
 COORDINATES OF SYMMETRY UNIQUE ATOMS (ANGS)
   ATOM   CHARGE       X              Y              Z
 ------------------------------------------------------------
 C           6.0   0.0000000000   0.0000000000   0.0000000000
 H           1.0   0.6256521039   0.6256521039   0.6256521039
 COORDINATES OF ALL ATOMS ARE (ANGS)
   ATOM   CHARGE       X              Y              Z
 ------------------------------------------------------------
 C           6.0   0.0000000000   0.0000000000   0.0000000000
 H           1.0   0.6256521039  -0.6256521039  -0.6256521039
 H           1.0  -0.6256521039   0.6256521039  -0.6256521039
 H           1.0  -0.6256521039  -0.6256521039   0.6256521039
 H           1.0   0.6256521039   0.6256521039   0.6256521039

          INTERNUCLEAR DISTANCES (ANGS.)
          ------------------------------

                1 C          2 H          3 H          4 H          5 H     

   1 C       0.0000000    1.0836612 *  1.0836612 *  1.0836612 *  1.0836612 *
   2 H       1.0836612 *  0.0000000    1.7696114 *  1.7696114 *  1.7696114 *
   3 H       1.0836612 *  1.7696114 *  0.0000000    1.7696114 *  1.7696114 *
   4 H       1.0836612 *  1.7696114 *  1.7696114 *  0.0000000    1.7696114 *
   5 H       1.0836612 *  1.7696114 *  1.7696114 *  1.7696114 *  0.0000000  

  * ... LESS THAN  3.000


          NUCLEAR ENERGY    =       13.5139792019
          ELECTRONIC ENERGY =      -53.7091511214
          TOTAL ENERGY      =      -40.1951719196

          ------------------
          MOLECULAR ORBITALS
          ------------------

                      1          2          3          4          5
                  -11.2050    -0.9446    -0.5462    -0.5462    -0.5462
                     A1         A1         T2         T2         T2  
    1  C  1  S    0.995621  -0.194146   0.000000   0.000000   0.000000
    2  C  1  S    0.028507   0.358886   0.000000   0.000000   0.000000
    3  C  1  X    0.000000   0.000000  -0.436130   0.000000   0.000000
    4  C  1  Y    0.000000   0.000000   0.000000  -0.436130   0.000000
    5  C  1  Z    0.000000   0.000000   0.000000   0.000000  -0.436130
    6  C  1  S   -0.013353   0.362604   0.000000   0.000000   0.000000
    7  C  1  X    0.000000   0.000000  -0.228743   0.000000   0.000000
    8  C  1  Y    0.000000   0.000000   0.000000  -0.228743   0.000000
    9  C  1  Z    0.000000   0.000000   0.000000   0.000000  -0.228743
   10  C  1 XX   -0.002076   0.010180   0.000000   0.000000   0.000000
   11  C  1 YY   -0.002076   0.010180   0.000000   0.000000   0.000000
   12  C  1 ZZ   -0.002076   0.010180   0.000000   0.000000   0.000000
   13  C  1 XY    0.000000   0.000000   0.000000   0.000000  -0.035977
   14  C  1 XZ    0.000000   0.000000   0.000000  -0.035977   0.000000
   15  C  1 YZ    0.000000   0.000000  -0.035977   0.000000   0.000000
   16  H  2  S    0.000043   0.134641  -0.168655   0.168655   0.168655
   17  H  2  S    0.002479   0.037690  -0.139006   0.139006   0.139006
   18  H  3  S    0.000043   0.134641   0.168655  -0.168655   0.168655
   19  H  3  S    0.002479   0.037690   0.139006  -0.139006   0.139006
   20  H  4  S    0.000043   0.134641   0.168655   0.168655  -0.168655
   21  H  4  S    0.002479   0.037690   0.139006   0.139006  -0.139006
   22  H  5  S    0.000043   0.134641  -0.168655  -0.168655  -0.168655
   23  H  5  S    0.002479   0.037690  -0.139006  -0.139006  -0.139006

                      6          7          8          9         10
                    0.2571     0.3278     0.3278     0.3278     0.7282
                     A1         T2         T2         T2         T2  
    1  C  1  S   -0.157030   0.000000   0.000000   0.000000   0.000000
    2  C  1  S    0.104586   0.000000   0.000000   0.000000   0.000000
    3  C  1  X    0.000000   0.000000  -0.297005   0.000000  -0.729100
    4  C  1  Y    0.000000  -0.297005   0.000000   0.000000   0.000000
    5  C  1  Z    0.000000   0.000000   0.000000  -0.297005   0.000000
    6  C  1  S    2.823752   0.000000   0.000000   0.000000   0.000000
    7  C  1  X    0.000000   0.000000  -1.505404   0.000000   1.354892
    8  C  1  Y    0.000000  -1.505404   0.000000   0.000000   0.000000
    9  C  1  Z    0.000000   0.000000   0.000000  -1.505404   0.000000
   10  C  1 XX   -0.012689   0.000000   0.000000   0.000000   0.000000
   11  C  1 YY   -0.012689   0.000000   0.000000   0.000000   0.000000
   12  C  1 ZZ   -0.012689   0.000000   0.000000   0.000000   0.000000
   13  C  1 XY    0.000000   0.000000   0.000000   0.015127   0.000000
   14  C  1 XZ    0.000000   0.015127   0.000000   0.000000   0.000000
   15  C  1 YZ    0.000000   0.000000   0.015127   0.000000  -0.102312
   16  H  2  S    0.005262  -0.044102   0.044102  -0.044102  -0.311241
   17  H  2  S   -1.050268  -1.167776   1.167776  -1.167776  -0.052800
   18  H  3  S    0.005262   0.044102  -0.044102  -0.044102   0.311241
   19  H  3  S   -1.050268   1.167776  -1.167776  -1.167776   0.052800
   20  H  4  S    0.005262  -0.044102  -0.044102   0.044102   0.311241
   21  H  4  S   -1.050268  -1.167776  -1.167776   1.167776   0.052800
   22  H  5  S    0.005262   0.044102   0.044102   0.044102  -0.311241
   23  H  5  S   -1.050268   1.167776   1.167776   1.167776  -0.052800

                     11         12         13         14         15
                    0.7282     0.7282     1.1844     1.1844     1.1844
                     T2         T2         T2         T2         T2  
    1  C  1  S    0.000000   0.000000   0.000000   0.000000   0.000000
    2  C  1  S    0.000000   0.000000   0.000000   0.000000   0.000000
    3  C  1  X    0.000000   0.000000   0.000000  -0.918439   0.000000
    4  C  1  Y   -0.729100   0.000000  -0.918439   0.000000   0.000000
    5  C  1  Z    0.000000  -0.729100   0.000000   0.000000  -0.918439
    6  C  1  S    0.000000   0.000000   0.000000   0.000000   0.000000
    7  C  1  X    0.000000   0.000000   0.000000   1.204603   0.000000
    8  C  1  Y    1.354892   0.000000   1.204603   0.000000   0.000000
    9  C  1  Z    0.000000   1.354892   0.000000   0.000000   1.204603
   10  C  1 XX    0.000000   0.000000   0.000000   0.000000   0.000000
   11  C  1 YY    0.000000   0.000000   0.000000   0.000000   0.000000
   12  C  1 ZZ    0.000000   0.000000   0.000000   0.000000   0.000000
   13  C  1 XY    0.000000  -0.102312   0.000000   0.000000   0.219936
   14  C  1 XZ   -0.102312   0.000000   0.219936   0.000000   0.000000
   15  C  1 YZ    0.000000   0.000000   0.000000   0.219936   0.000000
   16  H  2  S    0.311241   0.311241  -0.493767   0.493767  -0.493767
   17  H  2  S    0.052800   0.052800   0.918933  -0.918933   0.918933
   18  H  3  S   -0.311241   0.311241   0.493767  -0.493767  -0.493767
   19  H  3  S   -0.052800   0.052800  -0.918933   0.918933   0.918933
   20  H  4  S    0.311241  -0.311241  -0.493767  -0.493767   0.493767
   21  H  4  S    0.052800  -0.052800   0.918933   0.918933  -0.918933
   22  H  5  S   -0.311241  -0.311241   0.493767   0.493767   0.493767
   23  H  5  S   -0.052800  -0.052800  -0.918933  -0.918933  -0.918933

     ----------------------------------------------------------------
     PROPERTY VALUES FOR THE RHF   SELF-CONSISTENT FIELD WAVEFUNCTION
     ----------------------------------------------------------------

          -----------------
          ENERGY COMPONENTS
          -----------------

         WAVEFUNCTION NORMALIZATION =       1.0000000000

                ONE ELECTRON ENERGY =     -79.8421720191
                TWO ELECTRON ENERGY =      26.1330208977
           NUCLEAR REPULSION ENERGY =      13.5139792019
                                      ------------------
                       TOTAL ENERGY =     -40.1951719196

 ELECTRON-ELECTRON POTENTIAL ENERGY =      26.1330208977
  NUCLEUS-ELECTRON POTENTIAL ENERGY =    -120.0249324625
   NUCLEUS-NUCLEUS POTENTIAL ENERGY =      13.5139792019
                                      ------------------
             TOTAL POTENTIAL ENERGY =     -80.3779323630
               TOTAL KINETIC ENERGY =      40.1827604434
                 VIRIAL RATIO (V/T) =       2.0003088756

          ---------------------------------------
          MULLIKEN AND LOWDIN POPULATION ANALYSES
          ---------------------------------------

     ATOMIC MULLIKEN POPULATION IN EACH MOLECULAR ORBITAL

                      1          2          3          4          5

                  2.000000   2.000000   2.000000   2.000000   2.000000

    1             1.998006   1.347505   1.104992   1.104992   1.104992
    2             0.000498   0.163124   0.223752   0.223752   0.223752
    3             0.000498   0.163124   0.223752   0.223752   0.223752
    4             0.000498   0.163124   0.223752   0.223752   0.223752
    5             0.000498   0.163124   0.223752   0.223752   0.223752

               ----- POPULATIONS IN EACH AO -----
                             MULLIKEN      LOWDIN
              1  C  1  S      1.99642     1.98240
              2  C  1  S      0.62670     0.35232
              3  C  1  X      0.69539     0.62963
              4  C  1  Y      0.69539     0.62963
              5  C  1  Z      0.69539     0.62963
              6  C  1  S      0.68273     0.35297
              7  C  1  X      0.39559     0.51793
              8  C  1  Y      0.39559     0.51793
              9  C  1  Z      0.39559     0.51793
             10  C  1 XX      0.01322     0.14764
             11  C  1 YY      0.01322     0.14764
             12  C  1 ZZ      0.01322     0.14764
             13  C  1 XY      0.01401     0.02052
             14  C  1 XZ      0.01401     0.02052
             15  C  1 YZ      0.01401     0.02052
             16  H  2  S      0.52355     0.48353
             17  H  2  S      0.31133     0.35776
             18  H  3  S      0.52355     0.48353
             19  H  3  S      0.31133     0.35776
             20  H  4  S      0.52355     0.48353
             21  H  4  S      0.31133     0.35776
             22  H  5  S      0.52355     0.48353
             23  H  5  S      0.31133     0.35776

          ----- MULLIKEN ATOMIC OVERLAP POPULATIONS -----
          (OFF-DIAGONAL ELEMENTS NEED TO BE MULTIPLIED BY 2)

             1           2           3           4           5

    1    5.1051846
    2    0.3888259   0.5242731
    3    0.3888259  -0.0260736   0.5242731
    4    0.3888259  -0.0260736  -0.0260736   0.5242731
    5    0.3888259  -0.0260736  -0.0260736  -0.0260736   0.5242731

          TOTAL MULLIKEN AND LOWDIN ATOMIC POPULATIONS
       ATOM         MULL.POP.    CHARGE          LOW.POP.     CHARGE
    1 C             6.660488   -0.660488         6.634829   -0.634829
    2 H             0.834878    0.165122         0.841293    0.158707
    3 H             0.834878    0.165122         0.841293    0.158707
    4 H             0.834878    0.165122         0.841293    0.158707
    5 H             0.834878    0.165122         0.841293    0.158707

          -------------------------------
          BOND ORDER AND VALENCE ANALYSIS     BOND ORDER THRESHOLD=0.050
          -------------------------------

                   BOND                       BOND                       BOND
  ATOM PAIR DIST  ORDER      ATOM PAIR DIST  ORDER      ATOM PAIR DIST  ORDER
    1   2  1.084  0.962        1   3  1.084  0.962        1   4  1.084  0.962
    1   5  1.084  0.962

                       TOTAL       BONDED        FREE
      ATOM            VALENCE     VALENCE     VALENCE
    1 C                 3.848       3.848       0.000
    2 H                 0.934       0.934       0.000
    3 H                 0.934       0.934       0.000
    4 H                 0.934       0.934       0.000
    5 H                 0.934       0.934       0.000

          ---------------------
          ELECTROSTATIC MOMENTS
          ---------------------

 POINT   1           X           Y           Z (BOHR)    CHARGE
                 0.000000    0.000000    0.000000        0.00 (A.U.)
         DX          DY          DZ         /D/  (DEBYE)
     0.000000    0.000000    0.000000    0.000000
 ...... END OF PROPERTY EVALUATION ......
 STEP CPU TIME =     0.01 TOTAL CPU TIME =        0.1 (    0.0 MIN)
 TOTAL WALL CLOCK TIME=        0.3 SECONDS, CPU UTILIZATION IS  51.72%
  $VIB   
          IVIB=   0 IATOM=   0 ICOORD=   0 E=      -40.1951719196
  0.000000000E+00 0.000000000E+00 0.000000000E+00 1.341896804E-06-1.341896804E-06
 -1.341896804E-06-1.341896804E-06 1.341896804E-06-1.341896804E-06-1.341896804E-06
 -1.341896804E-06 1.341896804E-06 1.341896804E-06 1.341896804E-06 1.341896804E-06
  0.000000000E+00 5.643854273E-16 0.000000000E+00
 ......END OF GEOMETRY SEARCH......
 STEP CPU TIME =     0.00 TOTAL CPU TIME =        0.1 (    0.0 MIN)
 TOTAL WALL CLOCK TIME=        0.3 SECONDS, CPU UTILIZATION IS  46.87%


     *********************************************************
     THE HESSIAN WILL NOW BE COMPUTED AT THE STATIONARY POINT.
     *********************************************************

     ---------------------------------
     HESSIAN MATRIX CONTROL PARAMETERS
     ---------------------------------
     METHOD=ANALYTIC   NVIB  =       2   VIBSIZ= 0.01000
     RDHESS=       F   PURIFY=       F   PRTIFC=       F
     VIBANL=       F   DECOMP=       F   PROJCT=       F
     SCLFAC= 1.00000   PRTSCN=       F   NPRT  =       0
     PULCOR=       F   NPUN  =       0   REDOVB=       T

     ------------------------------
     CPHF RESPONSE SOLUTION OPTIONS
     ------------------------------
     POLAR  =       F     NWORD  =       0
     CPHF   =AO      

     ---------------------------------------------
     1ST AND 2ND INTEGRAL DERIVATIVE CONTRIBUTIONS
     ---------------------------------------------
 ...... END OF 1-ELECTRON GRAD+HESS+FOCKDER ......
 STEP CPU TIME =     0.01 TOTAL CPU TIME =        0.2 (    0.0 MIN)
 TOTAL WALL CLOCK TIME=        0.4 SECONDS, CPU UTILIZATION IS  44.44%

     ----------------------------------------------
     TWO ELECTRON INTEGRAL DERIVATIVE CONTRIBUTIONS
     ----------------------------------------------

      14004 WORDS REQUIRED,   2000000 WORDS AVAILABLE
 THE COARSE/FINE SCHWARZ SCREENINGS SKIPPED          0/         0 BLOCKS.
 THE NUMBER OF DERIVATIVE INTEGRAL BLOCKS COMPUTED WAS       366
 STEP CPU TIME =     0.05 TOTAL CPU TIME =        0.2 (    0.0 MIN)
 TOTAL WALL CLOCK TIME=        0.4 SECONDS, CPU UTILIZATION IS  51.22%
 ...... END OF 2-ELECTRON GRAD+HESS+FOCKDER ......
 STEP CPU TIME =     0.00 TOTAL CPU TIME =        0.2 (    0.0 MIN)
 TOTAL WALL CLOCK TIME=        0.4 SECONDS, CPU UTILIZATION IS  51.22%

     -------------------------------------------
     COUPLED-PERTURBED CLOSED SHELL HARTREE-FOCK
     -------------------------------------------
 THE CPHF HAS      90 INDEPENDENT ORBITAL ROTATIONS.
 SOLVING FOR    6 NUCLEAR RESPONSES AND 0 ELECTRIC FIELD RESPONSES
           -FA- WILL USE      3129 WORDS,
           -TA- WILL USE      9797 WORDS,
          -FCK- WILL USE     87720 WORDS,
 -WXY- AND -YA- WILL USE     55156 WORDS,
               THERE ARE   2000000 WORDS OF REPLICATED MEMORY AVAILABLE.
        TIME FOR -FA-   =        0.000
        TIME FOR -TA-   =        0.000
        TIME FOR -FCK-  =        0.010
 PRECONDITIONED CONJUGATE GRADIENT SOLVER     CONV. TOLERANCE=5.00E-05
             MAXIMUM          RESPONSES        NONZERO     BLOCKS
 ITER    RESPONSE ERROR        IMPROVED   AO INTEGRALS    SKIPPED
   1       2.88561E-01             6             31404          0
   2       1.11321E-01             6             31404          0
   3       1.29031E-02             6             31404          0
   4       1.69969E-03             6             31404          0
   5       2.16788E-04             6             31404          0
   6       2.48249E-05             6             31404          0
 THE CPHF HAS CONVERGED AFTER  6 ITERATIONS.
 IT REQUIRED    36 FOCK-LIKE BUILDS TO FIND THE   6 SYMMETRY UNIQUE RESPONSES.
        TIME FOR -YA-   =        0.050
 ...... DONE WITH CPHF CONTRIBUTIONS ......
 STEP CPU TIME =     0.06 TOTAL CPU TIME =        0.3 (    0.0 MIN)
 TOTAL WALL CLOCK TIME=        0.5 SECONDS, CPU UTILIZATION IS  56.25%

          ---------------
          ENERGY GRADIENT
          ---------------

 UNITS ARE HARTREE/BOHR    E'X               E'Y               E'Z 
    1 C                0.000000000       0.000000000       0.000000000
    2 H                0.000001345      -0.000001345      -0.000001345
    3 H               -0.000001345       0.000001345      -0.000001345
    4 H               -0.000001345      -0.000001345       0.000001345
    5 H                0.000001345       0.000001345       0.000001345

          -------------------------------
          CARTESIAN FORCE CONSTANT MATRIX
          -------------------------------

                                   1                          2
                               C                          H         
                          X        Y        Z        X        Y        Z
  1   C            X 0.622267 0.000000 0.000000-0.155567 0.097994 0.097994
                   Y 0.000000 0.622267 0.000000 0.097994-0.155567-0.097994
                   Z 0.000000 0.000000 0.622267 0.097994-0.097994-0.155567
  2   H            X-0.155567 0.097994 0.097994 0.162904-0.108820-0.108820
                   Y 0.097994-0.155567-0.097994-0.108820 0.162904 0.108820
                   Z 0.097994-0.097994-0.155567-0.108820 0.108820 0.162904
  3   H            X-0.155567 0.097994-0.097994-0.012024 0.010827-0.013272
                   Y 0.097994-0.155567 0.097994 0.010827-0.012024 0.013272
                   Z-0.097994 0.097994-0.155567 0.013272-0.013272 0.016711
  4   H            X-0.155567-0.097994 0.097994-0.012024-0.013272 0.010827
                   Y-0.097994-0.155567 0.097994 0.013272 0.016711-0.013272
                   Z 0.097994 0.097994-0.155567 0.010827 0.013272-0.012024
  5   H            X-0.155567-0.097994-0.097994 0.016711 0.013272 0.013272
                   Y-0.097994-0.155567-0.097994-0.013272-0.012024-0.010827
                   Z-0.097994-0.097994-0.155567-0.013272-0.010827-0.012024

                                   3                          4
                               H                          H         
                          X        Y        Z        X        Y        Z
  3   H            X 0.162904-0.108820 0.108820 0.016711-0.013272 0.013272
                   Y-0.108820 0.162904-0.108820 0.013272-0.012024 0.010827
                   Z 0.108820-0.108820 0.162904-0.013272 0.010827-0.012024
  4   H            X 0.016711 0.013272-0.013272 0.162904 0.108820-0.108820
                   Y-0.013272-0.012024 0.010827 0.108820 0.162904-0.108820
                   Z 0.013272 0.010827-0.012024-0.108820-0.108820 0.162904
  5   H            X-0.012024-0.013272-0.010827-0.012024-0.010827-0.013272
                   Y 0.013272 0.016711 0.013272-0.010827-0.012024-0.013272
                   Z-0.010827-0.013272-0.012024 0.013272 0.013272 0.016711

                                   5
                               H         
                          X        Y        Z
  5   H            X 0.162904 0.108820 0.108820
                   Y 0.108820 0.162904 0.108820
                   Z 0.108820 0.108820 0.162904

          ------------------------          ----------------
          DIPOLE DERIVATIVE TENSOR          (DEBYE/ANGSTROM)
          ------------------------          ----------------

        ATOM                 MU-X           MU-Y           MU-Z
     C          D/DX     0.350347271    0.000000000    0.000000000
                D/DY     0.000000000    0.350347271    0.000000000
                D/DZ     0.000000000    0.000000000    0.350347271
     H          D/DX    -0.087588886    0.379788735    0.379788735
                D/DY     0.379788735   -0.087588886   -0.379788735
                D/DZ     0.379788735   -0.379788735   -0.087588886
     H          D/DX    -0.087588886    0.379788735   -0.379788735
                D/DY     0.379788735   -0.087588886    0.379788735
                D/DZ    -0.379788735    0.379788735   -0.087588886
     H          D/DX    -0.087588886   -0.379788735    0.379788735
                D/DY    -0.379788735   -0.087588886    0.379788735
                D/DZ     0.379788735    0.379788735   -0.087588886
     H          D/DX    -0.087588886   -0.379788735   -0.379788735
                D/DY    -0.379788735   -0.087588886   -0.379788735
                D/DZ    -0.379788735   -0.379788735   -0.087588886

          --------------------------------------------------------
          NORMAL COORDINATE ANALYSIS IN THE HARMONIC APPROXIMATION
          --------------------------------------------------------

          ATOMIC WEIGHTS (AMU)

    1     C                12.00000
    2     H                 1.00782
    3     H                 1.00782
    4     H                 1.00782
    5     H                 1.00782

 MODES 1 TO 6 ARE TAKEN AS ROTATIONS AND TRANSLATIONS.

 ANALYZING SYMMETRY OF NORMAL MODES...
 WATCH OUT!! THE COUNTING OF DEGENERATE MODES COUNTS INDIVIDUAL MODES,
 E.G. 2*E MEANS ONE (1) SET OF DEGENERATE E MODES

 --- SYMMETRY FOR NORMAL MODES ---
 INCLUDING TRANSLATION AND ROTATION
    1*A1     0*A2     2*E      3*T1     9*T2  
 EXCLUDING TRANSLATION AND ROTATION (SAYVETZ < 0.01)
    1*A1     0*A2     2*E      0*T1     6*T2  

     FREQUENCIES IN CM**-1, IR INTENSITIES IN DEBYE**2/AMU-ANGSTROM**2,
     REDUCED MASSES IN AMU.

                          1           2           3           4           5
       FREQUENCY:         0.00        0.00        0.00        6.69        6.69  
        SYMMETRY:         T2          T2          T2          T1          T1  
    REDUCED MASS:      3.20626     3.20626     3.20626     1.00782     1.00782
    IR INTENSITY:      0.00000     0.00000     0.00000     0.00000     0.00000

  1   C            X -0.06487569 -0.05296360  0.23529550  0.00000000  0.00000000
                   Y  0.22454562  0.07566484  0.07894343  0.00000000  0.00000000
                   Z -0.08802488  0.23205098  0.02796305  0.00000000  0.00000000
  2   H            X -0.06487579 -0.05296381  0.23529546  0.24745038 -0.15115651
                   Y  0.22454563  0.07566504  0.07894331  0.17833948  0.33512537
                   Z -0.08802470  0.23205110  0.02796296  0.06911090 -0.48628188
  3   H            X -0.06487590 -0.05296350  0.23529549  0.31273255 -0.25948793
                   Y  0.22454575  0.07566473  0.07894327  0.24362165  0.22679396
                   Z -0.08802508  0.23205093  0.02796316 -0.06911090  0.48628188
  4   H            X -0.06487549 -0.05296371  0.23529556 -0.31273255  0.25948793
                   Y  0.22454566  0.07566467  0.07894358 -0.17833948 -0.33512537
                   Z -0.08802499  0.23205100  0.02796285 -0.49107203 -0.07563745
  5   H            X -0.06487561 -0.05296341  0.23529560 -0.24745038  0.15115651
                   Y  0.22454555  0.07566497  0.07894361 -0.24362165 -0.22679396
                   Z -0.08802478  0.23205103  0.02796326  0.49107203  0.07563745

 TRANS. SAYVETZ    X -1.04004164 -0.84907539  3.77209284  0.00000000  0.00000000
                   Y  3.59975831  1.21300583  1.26556587  0.00000000  0.00000000
                   Z -1.41115325  3.72007901  0.44828414  0.00000000  0.00000000
               TOTAL  4.00391059  4.00391059  4.00391059  0.00000000  0.00000000

   ROT. SAYVETZ    X  0.00000000  0.00000000  0.00000000  2.01117245  2.67824827
                   Y  0.00000000  0.00000000  0.00000000 -2.66997219  1.95723425
                   Z  0.00000000  0.00000000  0.00000000 -0.31115115  0.51633466
               TOTAL  0.00000000  0.00000000  0.00000000  3.35713884  3.35713884

                          6           7           8           9          10
       FREQUENCY:         6.69     1487.95     1487.95     1487.95     1702.60  
        SYMMETRY:         T1          T2          T2          T2          E   
    REDUCED MASS:      1.00782     1.17814     1.17814     1.17814     1.00783
    IR INTENSITY:      0.00000     0.24324     0.24324     0.24324     0.00000

  1   C            X  0.00000000 -0.10390909 -0.03717782 -0.03118234  0.00000000
                   Y  0.00000000  0.04832565 -0.08593671 -0.05857594  0.00000000
                   Z  0.00000000  0.00437722  0.06621419 -0.09353154  0.00000000
  2   H            X -0.40494315  0.21054053  0.14762811  0.37787435  0.31804922
                   Y -0.32240495  0.05908012  0.44956807  0.05751942 -0.06043607
                   Z -0.08253820  0.27226238 -0.28847590  0.22707983  0.37848529
  3   H            X  0.28796407  0.22694659  0.39580253  0.02731300 -0.31804922
                   Y  0.37050227  0.04267407  0.20139365  0.40808077  0.06043607
                   Z  0.08253820 -0.29832180 -0.10572488  0.32975256  0.37848529
  4   H            X -0.28796407  0.39166772 -0.17446742  0.15832850 -0.31804922
                   Y  0.32240495 -0.34678293  0.06204914  0.29120766 -0.06043607
                   Z  0.03444088  0.09113520  0.03361963  0.44662567 -0.37848529
  5   H            X  0.40494315  0.40807377  0.07370700 -0.19223285  0.31804922
                   Y -0.37050227 -0.33037687  0.31022356 -0.05935369  0.06043607
                   Z -0.03444088 -0.11719461 -0.42782041  0.11020671 -0.37848529

 TRANS. SAYVETZ    X  0.00000000  0.00000087  0.00000031  0.00000026  0.00000000
                   Y  0.00000000 -0.00000040  0.00000072  0.00000049  0.00000000
                   Z  0.00000000 -0.00000004 -0.00000055  0.00000078  0.00000000
               TOTAL  0.00000000  0.00000096  0.00000096  0.00000096  0.00000000

   ROT. SAYVETZ    X  0.22924387  0.00000000  0.00000000  0.00000000  0.00000000
                   Y  0.55755158  0.00000000  0.00000000  0.00000000  0.00000000
                   Z -3.30256940  0.00000000  0.00000000  0.00000000  0.00000000
               TOTAL  3.35713884  0.00000000  0.00000000  0.00000000  0.00000000

                         11          12          13          14          15
       FREQUENCY:      1702.60     3197.20     3301.71     3301.71     3301.71  
        SYMMETRY:         E           A1          T2          T2          T2  
    REDUCED MASS:      1.00783     1.00782     1.10239     1.10239     1.10239
    IR INTENSITY:      0.00000     0.00000     0.94239     0.94239     0.94239

  1   C            X  0.00000000  0.00000000 -0.02160200  0.08254863 -0.02286515
                   Y  0.00000000  0.00000000 -0.05176652 -0.03136892 -0.06434249
                   Z  0.00000000  0.00000000 -0.06824455 -0.00233507  0.05604433
  2   H            X  0.25341137  0.28755228 -0.31472834 -0.35217007  0.04185468
                   Y  0.40214439 -0.28755228  0.30140474  0.36146421 -0.05769143
                   Z -0.14873302 -0.28755228  0.29841236  0.36673671 -0.03582940
  3   H            X -0.25341137 -0.28755228  0.11634531 -0.33742037 -0.31215503
                   Y -0.40214439  0.28755228 -0.12966890  0.34671451  0.29631828
                   Z -0.14873302 -0.28755228  0.10787510 -0.35283509 -0.29782521
  4   H            X -0.25341137 -0.28755228  0.01226017 -0.15402508  0.44828056
                   Y  0.40214439 -0.28755228  0.00678235 -0.17471230  0.44074835
                   Z  0.14873302  0.28755228 -0.02857615  0.16859172 -0.44225528
  5   H            X  0.25341137  0.28755228  0.44333382 -0.13927538  0.09427085
                   Y -0.40214439  0.28755228  0.43785599 -0.15996260  0.08673864
                   Z  0.14873302  0.28755228  0.43486361 -0.15469011  0.10860067

 TRANS. SAYVETZ    X  0.00000000  0.00000000 -0.00000039  0.00000151 -0.00000042
                   Y  0.00000000  0.00000000 -0.00000094 -0.00000057 -0.00000117
                   Z  0.00000000  0.00000000 -0.00000124 -0.00000004  0.00000102
               TOTAL  0.00000000  0.00000000  0.00000161  0.00000161  0.00000161

   ROT. SAYVETZ    X  0.00000000  0.00000000  0.00000000  0.00000000  0.00000000
                   Y  0.00000000  0.00000000  0.00000000  0.00000000  0.00000000
                   Z  0.00000000  0.00000000  0.00000000  0.00000000  0.00000000
               TOTAL  0.00000000  0.00000000  0.00000000  0.00000000  0.00000000

 REFERENCE ON SAYVETZ CONDITIONS - A. SAYVETZ, J.CHEM.PHYS., 7, 383-389(1939).

 NOTE - THE MODES J,K ARE ORTHONORMALIZED ACCORDING TO
 SUM ON I   M(I) * (X(I,J)*X(I,K) + Y(I,J)*Y(I,K) + Z(I,J)*Z(I,K)) = DELTA(J,K)

[...]
   67  H  4  X   -0.191914   0.000000   0.172775  -0.172775  -0.391269
   68  H  4  Y   -0.191914  -0.172775   0.000000   0.172775  -0.391269
   69  H  4  Z   -0.282057  -0.172775   0.172775   0.000000   0.391269
   70  H  5  S   -0.148052   0.000000   0.000000   0.000000   0.685873
   71  H  5  S   -0.206077   0.000000   0.000000   0.000000  -0.653819
   72  H  5  S   -0.450120   0.000000   0.000000   0.000000  -0.669825
   73  H  5  S    0.311059   0.000000   0.000000   0.000000  -0.169233
   74  H  5  X   -0.335466   0.000000  -0.448601  -0.448601  -0.439028
   75  H  5  Y   -0.335466   0.448601   0.000000   0.448601  -0.439028
   76  H  5  Z    0.398472  -0.448601   0.448601   0.000000  -0.439028
   77  H  5  X    0.191914   0.000000   0.172775   0.172775   0.391269
   78  H  5  Y    0.191914  -0.172775   0.000000  -0.172775   0.391269
   79  H  5  Z   -0.282057   0.172775  -0.172775   0.000000   0.391269

                     71         72         73         74
                    6.0589     6.0589     6.0589    25.4681
                     T2         T2         T2         A1  
    1  C  1  S    0.000000   0.000000   0.000000  -2.043669
    2  C  1  S    0.000000   0.000000   0.000000   2.268022
    3  C  1  X   -0.634722   0.000000   0.000000   0.000000
    4  C  1  Y    0.000000  -0.634722   0.000000   0.000000
    5  C  1  Z    0.000000   0.000000  -0.634722   0.000000
    6  C  1  S    0.000000   0.000000   0.000000  -0.825566
    7  C  1  X    2.229690   0.000000   0.000000   0.000000
    8  C  1  Y    0.000000   2.229690   0.000000   0.000000
    9  C  1  Z    0.000000   0.000000   2.229690   0.000000
   10  C  1  S    0.000000   0.000000   0.000000  -1.109717
   11  C  1  X    0.876784   0.000000   0.000000   0.000000
   12  C  1  Y    0.000000   0.876784   0.000000   0.000000
   13  C  1  Z    0.000000   0.000000   0.876784   0.000000
   14  C  1  S    0.000000   0.000000   0.000000   0.294761
   15  C  1  X   -0.225148   0.000000   0.000000   0.000000
   16  C  1  Y    0.000000  -0.225148   0.000000   0.000000
   17  C  1  Z    0.000000   0.000000  -0.225148   0.000000
   18  C  1 XX    0.000000   0.000000   0.000000   0.000000
   19  C  1 YY    0.000000   0.000000   0.000000   0.000000
   20  C  1 ZZ    0.000000   0.000000   0.000000   0.000000
   21  C  1 XY    0.000000   0.000000   0.828848   0.000000
   22  C  1 XZ    0.000000   0.828848   0.000000   0.000000
   23  C  1 YZ    0.828848   0.000000   0.000000   0.000000
   24  C  1 XX    0.000000   0.000000   0.000000   0.000000
   25  C  1 YY    0.000000   0.000000   0.000000   0.000000
   26  C  1 ZZ    0.000000   0.000000   0.000000   0.000000
   27  C  1 XY    0.000000   0.000000   1.157048   0.000000
   28  C  1 XZ    0.000000   1.157048   0.000000   0.000000
   29  C  1 YZ    1.157048   0.000000   0.000000   0.000000
   30  C  1 XXX  -0.736702   0.000000   0.000000   0.000000
   31  C  1 YYY   0.000000  -0.736702   0.000000   0.000000
   32  C  1 ZZZ   0.000000   0.000000  -0.736702   0.000000
   33  C  1 XXY   0.000000   0.494195   0.000000   0.000000
   34  C  1 XXZ   0.000000   0.000000   0.494195   0.000000
   35  C  1 YYX   0.494195   0.000000   0.000000   0.000000
   36  C  1 YYZ   0.000000   0.000000   0.494195   0.000000
   37  C  1 ZZX   0.494195   0.000000   0.000000   0.000000
   38  C  1 ZZY   0.000000   0.494195   0.000000   0.000000
   39  C  1 XYZ   0.000000   0.000000   0.000000  -0.193906
   40  H  2  S   -0.391766   0.391766   0.391766   0.028490
   41  H  2  S   -1.235593   1.235593   1.235593   0.452406
   42  H  2  S    0.124067  -0.124067  -0.124067   0.054758
   43  H  2  S    0.098979  -0.098979  -0.098979  -0.057092
   44  H  2  X    0.536388  -0.344584  -0.344584  -0.065772
   45  H  2  Y   -0.344584   0.536388   0.344584   0.065772
   46  H  2  Z   -0.344584   0.344584   0.536388   0.065772
   47  H  2  X    0.005988  -0.114927  -0.114927  -0.102322
   48  H  2  Y   -0.114927   0.005988   0.114927   0.102322
   49  H  2  Z   -0.114927   0.114927   0.005988   0.102322
   50  H  3  S    0.391766  -0.391766   0.391766   0.028490
   51  H  3  S    1.235593  -1.235593   1.235593   0.452406
   52  H  3  S   -0.124067   0.124067  -0.124067   0.054758
   53  H  3  S   -0.098979   0.098979  -0.098979  -0.057092
   54  H  3  X    0.536388  -0.344584   0.344584   0.065772
   55  H  3  Y   -0.344584   0.536388  -0.344584  -0.065772
   56  H  3  Z    0.344584  -0.344584   0.536388   0.065772
   57  H  3  X    0.005988  -0.114927   0.114927   0.102322
   58  H  3  Y   -0.114927   0.005988  -0.114927  -0.102322
   59  H  3  Z    0.114927  -0.114927   0.005988   0.102322
   60  H  4  S    0.391766   0.391766  -0.391766   0.028490
   61  H  4  S    1.235593   1.235593  -1.235593   0.452406
   62  H  4  S   -0.124067  -0.124067   0.124067   0.054758
   63  H  4  S   -0.098979  -0.098979   0.098979  -0.057092
   64  H  4  X    0.536388   0.344584  -0.344584   0.065772
   65  H  4  Y    0.344584   0.536388  -0.344584   0.065772
   66  H  4  Z   -0.344584  -0.344584   0.536388  -0.065772
   67  H  4  X    0.005988   0.114927  -0.114927   0.102322
   68  H  4  Y    0.114927   0.005988  -0.114927   0.102322
   69  H  4  Z   -0.114927  -0.114927   0.005988  -0.102322
   70  H  5  S   -0.391766  -0.391766  -0.391766   0.028490
   71  H  5  S   -1.235593  -1.235593  -1.235593   0.452406
   72  H  5  S    0.124067   0.124067   0.124067   0.054758
   73  H  5  S    0.098979   0.098979   0.098979  -0.057092
   74  H  5  X    0.536388   0.344584   0.344584  -0.065772
   75  H  5  Y    0.344584   0.536388   0.344584  -0.065772
   76  H  5  Z    0.344584   0.344584   0.536388  -0.065772
   77  H  5  X    0.005988   0.114927   0.114927  -0.102322
   78  H  5  Y    0.114927   0.005988   0.114927  -0.102322
   79  H  5  Z    0.114927   0.114927   0.005988  -0.102322
 ...... END OF RHF CALCULATION ......
 STEP CPU TIME =     0.46 TOTAL CPU TIME =        1.3 (    0.0 MIN)
 TOTAL WALL CLOCK TIME=        1.8 SECONDS, CPU UTILIZATION IS  72.68%

     ----------------------------------------------------------------
     PROPERTY VALUES FOR THE RHF   SELF-CONSISTENT FIELD WAVEFUNCTION
     ----------------------------------------------------------------

          -----------------
          ENERGY COMPONENTS
          -----------------

         WAVEFUNCTION NORMALIZATION =       1.0000000000

                ONE ELECTRON ENERGY =     -79.7392883807
                TWO ELECTRON ENERGY =      26.0872656034
           NUCLEAR REPULSION ENERGY =      13.4398195152
                                      ------------------
                       TOTAL ENERGY =     -40.2122032620

 ELECTRON-ELECTRON POTENTIAL ENERGY =      26.0872656034
  NUCLEUS-ELECTRON POTENTIAL ENERGY =    -119.9057984298
   NUCLEUS-NUCLEUS POTENTIAL ENERGY =      13.4398195152
                                      ------------------
             TOTAL POTENTIAL ENERGY =     -80.3787133112
               TOTAL KINETIC ENERGY =      40.1665100492
                 VIRIAL RATIO (V/T) =       2.0011375948

          ---------------------------------------
          MULLIKEN AND LOWDIN POPULATION ANALYSES
          ---------------------------------------

     ATOMIC MULLIKEN POPULATION IN EACH MOLECULAR ORBITAL

                      1          2          3          4          5

                  2.000000   2.000000   2.000000   2.000000   2.000000

    1             2.001170   1.142708   1.021091   1.021091   1.021091
    2            -0.000293   0.214323   0.244727   0.244727   0.244727
    3            -0.000293   0.214323   0.244727   0.244727   0.244727
    4            -0.000293   0.214323   0.244727   0.244727   0.244727
    5            -0.000293   0.214323   0.244727   0.244727   0.244727

               ----- POPULATIONS IN EACH AO -----
                             MULLIKEN      LOWDIN
              1  C  1  S      1.10312     1.04348
              2  C  1  S      0.89106     0.90062
              3  C  1  X      0.20221     0.17932
              4  C  1  Y      0.20221     0.17932
              5  C  1  Z      0.20221     0.17932
              6  C  1  S      0.69857     0.24747
              7  C  1  X      0.50128     0.28990
              8  C  1  Y      0.50128     0.28990
              9  C  1  Z      0.50128     0.28990
             10  C  1  S      0.45697     0.18592
             11  C  1  X      0.30608     0.29036
             12  C  1  Y      0.30608     0.29036
             13  C  1  Z      0.30608     0.29036
             14  C  1  S     -0.00769     0.03898
             15  C  1  X     -0.00478     0.04652
             16  C  1  Y     -0.00478     0.04652
             17  C  1  Z     -0.00478     0.04652
             18  C  1 XX      0.00000     0.09437
             19  C  1 YY      0.00000     0.09437
             20  C  1 ZZ      0.00480     0.09437
             21  C  1 XY      0.00480     0.00732
             22  C  1 XZ      0.00480     0.00732
             23  C  1 YZ      0.00000     0.00732
             24  C  1 XX      0.00000     0.08649
             25  C  1 YY      0.00000     0.08649
             26  C  1 ZZ      0.01151     0.08649
             27  C  1 XY      0.01151     0.05486
             28  C  1 XZ      0.01151     0.05486
             29  C  1 YZ      0.00000     0.05486
             30  C  1 XXX     0.00000     0.16344
             31  C  1 YYY     0.00000     0.16344
             32  C  1 ZZZ     0.00000     0.16344
             33  C  1 XXY     0.00000     0.10464
             34  C  1 XXZ     0.00000     0.10464
             35  C  1 YYX     0.00185     0.10464
             36  C  1 YYZ     0.00000     0.10464
             37  C  1 ZZX     0.00000     0.10464
             38  C  1 ZZY     0.00000     0.10464
             39  C  1 XYZ     0.00000     0.00693
             40  H  2  S      0.26637     0.22203
             41  H  2  S      0.52288     0.33733
             42  H  2  S      0.11396     0.13547
             43  H  2  S      0.00822     0.02427
             44  H  2  X      0.00250     0.00264
             45  H  2  Y      0.00250     0.00264
             46  H  2  Z      0.00250     0.00264
             47  H  2  X      0.00976     0.03357
             48  H  2  Y      0.00976     0.03357
             49  H  2  Z      0.00976     0.03357
             50  H  3  S      0.26637     0.22203
             51  H  3  S      0.52288     0.33733
             52  H  3  S      0.11396     0.13547
             53  H  3  S      0.00822     0.02427
             54  H  3  X      0.00250     0.00264
             55  H  3  Y      0.00250     0.00264
             56  H  3  Z      0.00250     0.00264
             57  H  3  X      0.00976     0.03357
             58  H  3  Y      0.00976     0.03357
             59  H  3  Z      0.00976     0.03357
             60  H  4  S      0.26637     0.22203
             61  H  4  S      0.52288     0.33733
             62  H  4  S      0.11396     0.13547
             63  H  4  S      0.00822     0.02427
             64  H  4  X      0.00250     0.00264
             65  H  4  Y      0.00250     0.00264
             66  H  4  Z      0.00250     0.00264
             67  H  4  X      0.00976     0.03357
             68  H  4  Y      0.00976     0.03357
             69  H  4  Z      0.00976     0.03357
             70  H  5  S      0.26637     0.22203
             71  H  5  S      0.52288     0.33733
             72  H  5  S      0.11396     0.13547
             73  H  5  S      0.00822     0.02427
             74  H  5  X      0.00250     0.00264
             75  H  5  Y      0.00250     0.00264
             76  H  5  Z      0.00250     0.00264
             77  H  5  X      0.00976     0.03357
             78  H  5  Y      0.00976     0.03357
             79  H  5  Z      0.00976     0.03357

          ----- MULLIKEN ATOMIC OVERLAP POPULATIONS -----
          (OFF-DIAGONAL ELEMENTS NEED TO BE MULTIPLIED BY 2)

             1           2           3           4           5

    1    4.5504595
    2    0.4141729   0.6212616
    3    0.4141729  -0.0290741   0.6212616
    4    0.4141729  -0.0290741  -0.0290741   0.6212616
    5    0.4141729  -0.0290741  -0.0290741  -0.0290741   0.6212616

          TOTAL MULLIKEN AND LOWDIN ATOMIC POPULATIONS
       ATOM         MULL.POP.    CHARGE          LOW.POP.     CHARGE
    1 C             6.207151   -0.207151         6.689042   -0.689042
    2 H             0.948212    0.051788         0.827739    0.172261
    3 H             0.948212    0.051788         0.827739    0.172261
    4 H             0.948212    0.051788         0.827739    0.172261
    5 H             0.948212    0.051788         0.827739    0.172261

          MULLIKEN SPHERICAL HARMONIC POPULATIONS
       ATOM           S       P       D      F      G      H      I    TOTAL
    1 C             3.14    3.01    0.05   0.00   0.00   0.00   0.00    6.21
    2 H             0.91    0.04    0.00   0.00   0.00   0.00   0.00    0.95
    3 H             0.91    0.04    0.00   0.00   0.00   0.00   0.00    0.95
    4 H             0.91    0.04    0.00   0.00   0.00   0.00   0.00    0.95
    5 H             0.91    0.04    0.00   0.00   0.00   0.00   0.00    0.95

          -------------------------------
          BOND ORDER AND VALENCE ANALYSIS     BOND ORDER THRESHOLD=0.050
          -------------------------------

                   BOND                       BOND                       BOND
  ATOM PAIR DIST  ORDER      ATOM PAIR DIST  ORDER      ATOM PAIR DIST  ORDER
    1   2  1.090  0.994        1   3  1.090  0.994        1   4  1.090  0.994
    1   5  1.090  0.994

                       TOTAL       BONDED        FREE
      ATOM            VALENCE     VALENCE     VALENCE
    1 C                 3.977       3.977       0.000
    2 H                 0.990       0.990       0.000
    3 H                 0.990       0.990       0.000
    4 H                 0.990       0.990       0.000
    5 H                 0.990       0.990       0.000

          ---------------------
          ELECTROSTATIC MOMENTS
          ---------------------

 POINT   1           X           Y           Z (BOHR)    CHARGE
                 0.000000    0.000000    0.000000        0.00 (A.U.)
         DX          DY          DZ         /D/  (DEBYE)
     0.000000    0.000000    0.000000    0.000000
 ...... END OF PROPERTY EVALUATION ......
 STEP CPU TIME =     0.02 TOTAL CPU TIME =        1.4 (    0.0 MIN)
 TOTAL WALL CLOCK TIME=        1.9 SECONDS, CPU UTILIZATION IS  72.58%

 --------------------------   -----------------------------
 RHF-MP2 ENERGY CALCULATION   PROGRAM WRITTEN BY K.ISHIMURA
 --------------------------   -----------------------------
 NUMBER OF OCCUPIED ORBITALS            =    5
 NUMBER OF CORRELATED OCCUPIED ORBITALS =    4
 NUMBER OF VIRTUAL ORBITALS             =   69
 NUMBER OF BASIS FUNCTIONS              =   79
 NUMBER OF BASIS SHELLS                 =   32
 AO-TRANSFORMED INTEGRAL THRESHOLD      = 1.00E-09
 HALF-TRANSFORMED INTEGRAL THRESHOLD    = 4.05E-12
 TOTAL DISK REQUIRED (ALL PROCESSORS)=              0 MBYTES
                  DISK SPACE PER CORE=              0 MBYTES, USING P=    1
 MEMORY REQUIRED FOR TRANSFORMATION OF 1ST THREE INDICES=      200832
 MEMORY REQUIRED FOR    4TH INDEX TRANSF. AND MP2 ENERGY=       82578
 BEGINNING MP2 INTEGRAL TRANSFORMATION...
 BEGINNING    1ST SHELL LOOP...
 BEGINNING   26TH SHELL LOOP...

 RESULTS OF MOLLER-PLESSET 2ND ORDER CORRECTION ARE
               E(0)=       -40.2122032620
               E(1)=         0.0
               E(2)=        -0.1920449411
             E(MP2)=       -40.4042482032
 SPIN-COMPONENT-SCALED MP2 RESULTS ARE
              E(2S)=        -0.1562535816
              E(2T)=        -0.0357913595
             E(2ST)=        -0.1994347511 = 6/5 * E(2S) + 1/3 * E(2T)
            SCS-MP2=       -40.4116380131
 ..... DONE WITH MP2 ENERGY .....
 STEP CPU TIME =     1.42 TOTAL CPU TIME =        2.8 (    0.0 MIN)
 TOTAL WALL CLOCK TIME=        3.3 SECONDS, CPU UTILIZATION IS  83.69%
 STEP CPU TIME =     0.00 TOTAL CPU TIME =        2.8 (    0.0 MIN)
 TOTAL WALL CLOCK TIME=        3.3 SECONDS, CPU UTILIZATION IS  83.69%

    ----------------------------------------------------------------
        DETAILS OF G3(MP2) CALCULATIONS
    ----------------------------------------------------------------
    E(G3(MP2))@0K   = E(CCSD(T))   + DE(BASIS)   + ZPE(SCALED) + HLC
    E(G3(MP2))@298K = E(G3(MP2))@0K + (E(THERMAL) - ZPE)
    H(G3(MP2))      = E(G3(MP2))@298K + KT
    G(G3(MP2))      = H(G3(MP2)) - TDS

        E(CCSD(T))      = CCSD(T)/6-31G(D)//MP2/6-31G(D) FROZEN CORE
        DE(BASIS)       = E(MP2/G3MP2LARGE) - E(MP2/6-31G(D)) FROZEN CORE
        GEOMETRY MP2/6-31G(D) CORE CORRELATION INCLUDED
        ZPE AND OTHER THERMAL CALCULATIONS AT HF/6-31G(D)
        HLCS USED ARE:  A = 0.009170     B = 0.004455 HARTREE

    ----------------------------------------------------------------
                   SUMMARY OF G3(MP2) CALCULATIONS
    ----------------------------------------------------------------
    MP2/6-31G(D)    =   -40.332552   CCSD(T)/6-31G(D) =   -40.355850
    MP2/G3MP2LARGE  =   -40.404248   BASIS CONTRIBUT  =    -0.071696
    ZPE(HF/6-31G(D))=     0.042659   ZPE SCALE FACTOR =     0.892900
    HLC             =    -0.036680   FREE ENERGY      =     0.030480
    THERMAL ENERGY  =     0.050629   THERMAL ENTHALPY =     0.051573
    ----------------------------------------------------------------
    E(G3(MP2)) @ 0K =   -40.421567   E(G3(MP2)) @298K =   -40.418715
    H(G3(MP2))      =   -40.417771   G(G3(MP2))       =   -40.438863
    ----------------------------------------------------------------

    ----------------------------------------------------------------
          HEAT OF FORMATION   (0K):     -16.01 KCAL/MOL
          HEAT OF FORMATION (298K):     -17.83 KCAL/MOL
    ----------------------------------------------------------------
          HEATS OF FORMATIONS BASED ON NIST DATABASE FROM 
          COMPUTATIONAL CHEMISTRY COMPARISON AND BENCHMARK DATABASE
    ----------------------------------------------------------------

 STEP CPU TIME =     0.00 TOTAL CPU TIME =        2.8 (    0.0 MIN)
 TOTAL WALL CLOCK TIME=        3.3 SECONDS, CPU UTILIZATION IS  83.69%
               1049661  WORDS OF DYNAMIC MEMORY USED
 EXECUTION OF GAMESS TERMINATED NORMALLY Tue Sep 13 14:00:25 2016
 DDI: 263624 bytes (0.3 MB / 0 MWords) used by master data server.

 ----------------------------------------
 CPU timing information for all processes
 ========================================
 0: 2.460 + 0.376 = 2.836
 1: 5.280 + 0.24 = 5.304
 ----------------------------------------
----- accounting info -----
Files used on the master node g4noden2 were:
-rw-r--r-- 1 g4rosendo g4   84669 sep 13 14:00 /scratch/g4rosendo/exam43.dat
-rw-r--r-- 1 g4rosendo g4    2501 sep 13 14:00 /scratch/g4rosendo/exam43.F05
-rw-r--r-- 1 g4rosendo g4  182048 sep 13 14:00 /scratch/g4rosendo/exam43.F09
-rw-r--r-- 1 g4rosendo g4 1636000 sep 13 14:00 /scratch/g4rosendo/exam43.F10
-rw-r--r-- 1 g4rosendo g4   33240 sep 13 14:00 /scratch/g4rosendo/exam43.F18
-rw-r--r-- 1 g4rosendo g4  388608 sep 13 14:00 /scratch/g4rosendo/exam43.F70
-rw-r--r-- 1 g4rosendo g4  420480 sep 13 14:00 /scratch/g4rosendo/exam43.F71
-rw-r--r-- 1 g4rosendo g4 2752704 sep 13 14:00 /scratch/g4rosendo/exam43.F72
-rw-r--r-- 1 g4rosendo g4    2304 sep 13 14:00 /scratch/g4rosendo/exam43.F73
-rw-r--r-- 1 g4rosendo g4   82944 sep 13 14:00 /scratch/g4rosendo/exam43.F74
-rw-r--r-- 1 g4rosendo g4       0 sep 13 14:00 /scratch/g4rosendo/exam43.F75
-rw-r--r-- 1 g4rosendo g4       0 sep 13 14:00 /scratch/g4rosendo/exam43.F76
-rw-r--r-- 1 g4rosendo g4       0 sep 13 14:00 /scratch/g4rosendo/exam43.F77
-rw-r--r-- 1 g4rosendo g4       0 sep 13 14:00 /scratch/g4rosendo/exam43.nodes.mpd
mar sep 13 14:00:27 CEST 2016
8.024u 0.556s 0:07.26 118.0%	0+0k 66208+23040io 163pf+0w
